9.28066 2.64341 4.54277 11.7744 3.19447 2.02468 6.57159 11.0055 5.98507 4.6818 6.34042 8.97055 2.30708 9.79946 11.9309 6.85885 5.08472 11.4659 9.67958 10.9823 11.6013 5.50589 2.0524 10.0398 9.12919 12.5479 1.82353 9.13134 7.50134 11.1532 3.12087 2.48372 12.2763 4.99275 3.5311 3.94201 10.0355 4.359 9.96653 9.83 12.3219 8.8842 2.95582 12.4575 10.0084 11.5928 5.01873 5.17016 6.89308 4.31798 8.69075 12.1421 11.2081 7.08769 4.14579 8.5665 1.75702 2.14407 10.6057 3.03449 11.3583 7.23463 8.15273 11.5853 10.0401 3.48633 9.36389 5.1837 2.76131 0.0480665 12.2357 9.9777 8.8205 9.48936 8.22307 4.84999 0.957051 5.43252 2.22231 5.02389 11.0073 8.47186 10.0979 3.64605 1.00303 7.28735 2.98968 7.69309 1.14012 7.35235 1.84055 1.72708 3.45223 1.053 9.014 8.7854 5.61072 11.2248 2.77817 2.59754 4.42385 1.85038 10.1051 1.52911 11.8425 7.4094 9.4509 0.730995 1.64716 5.39577 7.752 11.1061 2.28421 7.29359 7.43882 2.50966 1.61131 4.3264 9.82978 9.50603 1.3239 8.74185 5.70677 4.36012 3.87154 6.90123 11.9355 5.44529 0.0990461 1.75806 1.23695 6.82285 2.10966 5.35537 4.68912 3.30543 12.5787 1.14217 9.88129 7.55457 5.45725 10.0294 12.4267 4.84949 0.467563 2.62734 9.68669 11.7675 8.46123 0.351417 3.12126 10.8525 6.61133 6.04093 5.51809 1.83256 7.24994 5.48349 5.4654 7.24708 11.7186 10.266 8.72296 5.68981 11.0303 3.16082 0.625597 11.9261 11.4155 11.2557 5.31411 7.62818 8.10741 12.2155 9.92411 8.33759 7.27641 5.46025 12.2698 4.27144 11.0333 11.5519 10.3834 8.2044 1.90133 5.74773 11.5985 4.42941 11.3126 0.59266 9.20297 12.1826 10.1039 10.9057 7.70833 3.07307 4.49208 0.0478337 4.85116 10.5157 6.35694 11.6362 0.192648 8.08557 2.05551 7.20291 5.11716 3.43985 0.150387 6.1887 9.47207 2.79123 10.9457 5.43523 2.72641 5.78904 2.95742 2.06061 1.45872 8.75495 10.5799 9.86737 1.97512 3.68579 3.54631 6.71604 3.76636 0.641988 0.325862 2.32048 7.66418 4.16737 0.966098 9.362 0.946577 4.82617 6.09783 2.39995 6.10583 2.71626 6.74543 10.0337 4.27057 4.80607 8.08845 8.70798 3.78102 4.66939 5.22965 2.08054 10.3326 4.97471 11.9988 1.30687 10.7178 10.8124 6.01458 9.25453 7.86032 5.9387 2.21143 0.0149085 7.07746 1.42125 3.43485 11.2801 8.53813 0.396914 11.1192 3.01205 9.40079 1.02614 3.42738 9.91106 9.12057 4.4988 6.73758 2.31102 8.38792 0.0195949 8.5482 4.22182 8.45898 11.6935 5.26704 8.54354 4.43974 4.84413 6.22404 5.21442 7.00283 7.66007 11.5094 2.33784 11.1062 3.67356 3.81071 11.1219 6.41746 6.28749 6.19546 0.198126 6.61175 3.38291 8.47757 0.0043599 1.4936 0.885734 9.215 1.2775 1.56271 5.19192 1.16581 12.0239 6.76613 6.12087 5.09763 3.97278 6.30678 2.4842 3.11808 11.2548 3.28837 9.05575 0.907772 7.04672 8.006 10.301 12.2201 0.308028 10.1227 11.3047 3.02486 8.66656 4.24058 8.70367 0.529758 4.16958 1.36185 10.6963 4.90585 1.52599 4.82806 3.8679 8.73541 7.93621 12.3405 8.53156 4.69974 2.87771 11.4994 8.75073 7.96072 9.45001 1.67099 3.03557 11.1316 6.28566 5.8106 9.81688 3.78478 1.93133 4.09691 2.57409 10.8511 1.10664 3.41046 5.62127 7.51617 6.40134 0.707796 10.7067 8.82306 3.3285 2.63394 1.28167 4.47038 9.26444 1.38818 11.6035 11.0648 5.93962 10.633 9.50391 0.136421 1.76018 2.71695 2.45066 0.0019 2.81416 0.270395 5.85886 3.95221 10.7293 1.3398 5.47484 2.36097 9.07518 10.0727 7.69394 10.9369 12.063 5.00522 7.00251 2.1767 0.905958 6.03097 11.736 0.409431 10.7785 8.8335 11.2645 9.38805 1.82582 10.202 6.24786 3.99686 8.27636 1.15187 0.667382 6.83962 3.56554 10.4514 12.4439 9.27127 6.80843 2.19005 8.65754 2.57324 8.30495 8.99272 2.30407 10.8324 3.70398 6.26355 2.97725 2.76558 7.06877 2.38922 9.17037 7.25987 9.09581 0.270282 10.6833 10.1214 9.27638 11.9086 4.9827 12.3216 1.46967 5.97925 5.99729 0.0764805 4.48513 4.25842 2.28263 3.76289 10.7829 10.9739 4.08407 10.1483 3.06939 9.56128 1.48159 7.98893 8.18373 7.00934 5.77927 3.52201 6.10239 10.2961 7.45844 9.93269 7.1114 10.8448 6.90499 12.1774 11.9296 8.55525 9.37513 10.8014 2.23233 0.772916 5.76949 9.51784 1.55367
9.47839 2.60413 4.74342 11.8188 3.20022 1.96134 6.45584 10.9301 5.99648 4.69471 6.3509 9.02546 2.19143 9.92276 11.9582 6.93055 5.16914 11.6024 9.80383 10.914 11.5382 5.63627 2.06105 10.1847 9.17482 -0.0661127 1.88604 9.28371 7.44782 11.1132 3.13936 2.55426 12.1589 5.04718 3.42833 3.85107 9.89328 4.36047 10.0299 9.80377 12.1875 8.88317 3.13465 12.38 10.0138 11.5086 4.91906 5.19753 6.9056 4.33712 8.72933 12.1842 11.2792 7.00192 4.10837 8.64316 1.7264 2.10844 10.6295 3.00627 11.2784 7.17339 8.27756 11.434 9.97867 3.36595 9.43948 5.10947 2.79345 0.229862 12.4098 9.86454 8.88112 9.44367 8.04545 4.82685 1.02252 5.41822 2.12189 5.10791 10.9399 8.3538 10.0799 3.6241 0.861666 7.22319 2.94528 7.6594 1.14168 7.3966 1.82939 1.78684 3.54725 1.02598 8.98161 8.64852 5.64137 11.264 2.65015 2.4811 4.39124 1.76683 9.97518 1.39571 12.0105 7.42005 9.42493 0.567245 1.53687 5.46861 7.67582 11.2547 2.17013 7.47554 7.4625 2.60598 1.59887 4.30945 9.74286 9.63536 1.34522 8.67667 5.61667 4.34774 3.96196 6.96546 12.0285 5.52069 0.073506 1.80256 1.40163 6.87778 2.05557 5.21414 4.54858 3.17373 0.160142 1.23656 9.78577 7.46117 5.36033 9.97057 12.328 4.82648 12.6406 3.08577 10.1426 11.7804 8.38467 0.298834 3.0905 10.8617 6.71844 6.19472 5.76962 1.93237 7.36352 5.38734 5.46377 7.23455 11.7064 10.3659 8.80037 5.63096 11.1531 3.31132 0.752762 11.9914 11.3746 11.2431 5.26772 7.83674 8.06021 11.9865 10.031 8.40053 7.04502 5.27135 12.2103 4.2676 11.2256 11.4933 10.4116 8.1635 2.17826 5.77424 11.7057 4.23705 11.2519 0.512008 9.3203 12.2459 10.113 10.9805 7.64403 3.00807 4.48469 -0.00340349 4.80289 10.4083 6.47721 11.6279 0.276414 8.23544 2.10897 7.1088 4.96432 3.48434 0.265605 6.43798 9.59361 2.83766 11.174 5.35583 2.80199 5.80803 2.72052 2.17017 1.39321 8.9032 10.4542 9.74401 1.89669 3.60794 3.49901 6.92314 3.97007 0.576551 0.456072 2.43936 7.70693 4.25032 1.0477 9.43857 0.93685 4.74984 6.04269 2.3017 5.94428 2.65768 6.66581 9.88519 4.26763 4.83226 8.13739 8.92063 3.72498 4.63246 5.03836 2.20665 10.1004 4.87568 12.0475 1.45104 10.702 10.8031 5.8183 9.24482 8.01354 6.04435 2.12188 12.5506 6.97599 1.39274 3.44161 11.0903 8.59917 0.273942 10.7593 2.67079 9.40842 1.07393 3.50937 9.66962 9.15584 4.55094 6.79797 2.32708 8.43298 12.5289 8.55006 4.22894 8.34088 11.5225 5.09615 8.89716 4.53767 4.86934 6.42375 5.11019 7.01324 7.54578 11.7018 2.38959 10.9721 3.72821 3.7423 10.9429 6.23553 6.38119 6.30413 0.333317 6.44832 3.40346 8.63232 0.0492433 1.69691 0.624092 9.07158 1.29334 1.61531 5.23336 1.08655 12.07 6.57342 6.24505 5.03872 4.02491 6.24238 2.2808 2.95871 11.1828 3.29032 8.98153 0.508874 6.96629 7.72461 10.2424 11.99 0.460029 10.0114 11.2474 3.09865 8.70291 4.3498 8.54432 0.571654 4.19657 1.20506 10.706 4.74718 1.40031 4.98146 4.13855 8.71504 7.74174 12.2708 8.57592 4.66138 2.91121 11.5855 9.2656 7.98394 9.40547 1.88495 3.03695 10.9121 6.38374 5.98544 9.86668 3.86211 1.87092 4.11168 2.46321 10.9522 1.02034 3.31583 5.82494 7.66262 6.42421 0.656527 10.8613 8.67501 3.28119 2.735 1.08734 4.66925 9.31089 1.45635 11.6441 10.9855 5.97412 10.5744 9.6862 0.0552902 1.82445 2.80982 2.32372 12.4971 2.98496 0.209625 5.74201 3.88673 10.6567 1.18728 5.62305 2.2499 9.05546 10.0527 7.80498 10.8891 12.1757 5.27882 7.32994 2.33875 0.989736 6.16978 11.8035 0.537136 10.7556 8.74335 11.1365 8.96187 1.91688 10.3035 6.32161 3.87018 8.48591 1.2141 0.750199 6.77434 3.6356 10.5905 12.5815 9.41227 6.78989 2.13893 8.67621 2.37834 8.29821 9.06491 2.11256 10.8943 3.48695 6.19394 2.94788 2.99628 7.28225 2.4367 9.14059 7.18303 9.11541 0.150378 10.7003 10.2521 9.17756 11.9432 4.93698 12.497 1.51556 5.87288 6.06095 0.163861 4.48602 4.2513 2.30553 3.78081 10.8309 11.0494 4.15276 10.1521 2.98193 9.4911 1.17403 7.91547 8.05987 6.99004 5.52729 3.44812 6.17105 10.2682 7.35099 9.73563 7.07775 10.9447 6.86211 12.0891 12.0694 8.24436 9.47119 10.9947 2.09285 0.817829 5.70813 9.73255 1.18244
9.45147 2.68142 4.7784 11.7893 3.10617 2.02175 6.59771 10.8532 5.84427 4.60458 6.20909 9.1718 2.32197 9.9964 11.8831 6.92888 4.95853 11.6512 9.74167 10.9656 11.6462 5.7403 2.11184 10.1131 9.2408 0.0164116 1.87089 9.23377 7.40872 11.1508 3.29184 2.57131 12.2685 4.92197 3.53312 3.94934 10.0343 4.38416 10.1411 9.81162 12.2905 8.91582 3.09137 12.4348 9.97305 11.4674 4.98228 5.2372 7.03002 4.37498 8.69355 12.0461 11.1338 7.10665 4.08669 8.67831 1.80077 2.16056 10.5952 2.92525 11.0869 7.29871 8.25597 11.6249 9.99403 3.46108 9.38298 5.1149 2.83737 0.122914 12.1629 9.97771 8.85313 9.60261 8.16834 4.84161 1.01356 5.42475 1.95243 4.88932 10.9445 8.42039 10.0389 3.42657 0.881055 7.27385 2.9983 7.59121 1.15573 7.32851 1.891 1.71857 3.34941 1.05039 8.88592 8.67399 5.71504 11.2344 2.73966 2.49645 4.36757 1.8456 9.99662 1.40775 11.9493 7.30843 9.36862 0.451318 1.54125 5.46503 7.70246 11.0799 2.25863 7.51554 7.53602 2.60254 1.77082 4.29495 9.70298 9.49339 1.39639 8.67103 5.64641 4.19474 3.95433 6.93934 11.9591 5.4721 12.6389 1.73902 1.17157 6.7037 2.00313 5.27553 4.64591 3.18618 0.0747388 1.14072 9.78194 7.62771 5.39981 10.0734 12.3862 4.67811 0.510763 2.407 9.57065 11.7597 8.52787 0.389881 3.12214 10.9213 6.5302 6.01541 5.80426 2.10247 7.36463 5.61215 5.48089 7.22623 11.7358 10.3369 8.77975 5.6191 11.2268 3.19289 0.725931 11.9134 11.4969 11.2246 5.21145 7.66804 7.94885 11.9776 9.95508 8.50492 7.00619 5.50105 12.346 4.20854 11.0982 11.3097 10.4578 8.18136 1.90893 5.6939 11.4781 4.38742 11.3656 0.571835 9.40203 12.3296 10.0093 10.9211 7.67271 2.8179 4.43619 12.6226 4.8362 10.4482 6.2628 11.5429 0.168461 8.3435 2.14763 7.20353 4.87659 3.3359 0.182461 6.29864 9.50833 2.74829 11.0674 5.392 2.92337 5.81763 2.82102 2.10879 1.44382 8.72711 10.5126 9.82922 1.83396 3.696 3.59823 7.23949 3.81596 0.569776 0.376968 2.24478 7.51067 4.25012 1.11861 9.46132 0.847191 4.79321 6.08153 2.31857 6.00611 2.59724 6.74805 9.89723 4.2112 4.74798 8.05139 8.88529 3.74045 4.75718 5.17789 2.16331 10.2658 4.89625 12.1522 1.28119 10.6657 10.9406 5.76125 9.10463 7.90351 6.0072 2.45714 -0.0226246 7.02635 1.34313 3.45301 11.0574 8.52363 0.423162 10.9566 2.81806 9.64401 1.18205 3.30915 9.78134 9.10275 4.24766 6.77647 2.44777 8.40504 0.0434838 8.65647 4.28751 8.54482 11.5536 5.11362 8.88483 4.61706 5.01268 6.47576 5.15024 6.95775 7.62135 11.6175 2.34364 10.9793 3.67355 3.81358 11.0513 6.4909 6.40461 6.21192 0.312856 6.51205 3.44437 8.80617 0.146556 1.66851 0.799383 9.12556 1.16039 1.47788 5.05459 1.12021 11.8904 6.81042 6.08342 5.20652 4.13998 6.19583 2.52673 3.10361 11.2806 3.21828 9.05351 0.738027 7.04227 7.8809 10.2502 12.2033 0.308778 10.1576 11.2757 3.0052 8.68661 4.42014 8.76643 0.416907 4.18953 1.13978 10.5936 4.89211 1.45803 4.9214 4.0809 8.82175 7.85091 12.3561 8.56303 4.8841 2.91219 11.6755 9.31527 7.93874 9.3524 1.89969 2.89699 10.9607 6.1984 5.93696 9.96141 3.88406 1.96794 4.06736 2.44585 11.08 0.945914 3.31346 5.64467 7.52515 6.5404 0.684915 10.8705 8.65067 3.37531 2.87932 1.16763 4.3425 9.12896 1.47839 11.7038 11.0587 5.89784 10.5767 9.70319 0.292433 1.74867 2.53252 2.49256 12.6067 2.90033 0.163722 5.71836 3.95972 10.5986 1.22864 5.7452 2.3094 9.02578 9.96765 7.74828 10.9682 12.0695 5.13988 7.30867 2.33221 0.890035 5.99113 11.6179 0.294628 10.6732 8.8449 11.2017 9.1217 2.0116 10.2836 6.31272 4.0794 8.40643 1.30929 0.778238 6.9716 3.5968 10.5291 12.5688 9.33241 6.82004 2.17282 8.68949 2.51165 8.32751 9.0336 1.9332 10.6314 3.59769 6.28901 2.88035 2.79251 7.09184 2.4905 9.10778 7.05649 9.14777 0.121791 10.7769 10.1645 9.30604 12.1099 4.92112 12.3842 1.51066 5.88726 5.7753 0.296586 4.42091 4.52416 2.31976 3.8026 10.9016 11.0499 4.0807 10.2107 3.03613 9.47697 1.43989 8.10704 7.95838 7.3516 5.51004 3.35141 6.01821 10.3683 7.52571 9.88541 7.01391 10.8672 7.02259 12.056 12.0182 8.41601 9.31879 10.9075 2.10029 0.88258 5.78102 9.76652 1.31241
9.4024 2.83685 4.7224 11.7404 3.11463 2.00261 6.69319 10.726 5.85102 4.70644 6.25138 9.05624 2.28699 9.86301 12.0481 6.83198 4.97936 11.5565 9.63223 11.05 11.6365 5.54332 2.12377 9.96571 9.22518 0.110299 1.97206 9.0477 7.42373 11.2582 3.10175 2.5877 12.2411 4.95596 3.43286 3.88176 10.1363 4.40915 10.0635 9.86873 12.3246 9.03387 3.13004 12.3812 9.99217 11.6986 4.9708 5.04057 7.08328 4.14605 8.66585 12.1902 11.1972 7.1591 4.14931 8.68064 1.77902 2.16081 10.7495 3.07803 11.3875 7.17275 8.0093 11.4378 9.92556 3.60648 9.23755 5.37885 2.43145 0.152177 12.1546 10.0085 8.93066 9.37472 8.25441 4.93417 0.887458 5.43174 2.06903 5.08112 10.994 8.42748 10.1763 3.46539 1.02364 7.32712 2.89228 7.75767 1.05911 7.28861 1.87071 1.76964 3.57719 0.998992 8.9932 8.7841 5.52839 11.3167 2.59127 2.38854 4.26881 1.90852 10.247 1.49701 11.8248 7.47361 9.49987 0.596444 1.68404 5.46699 7.66112 11.0497 2.19412 7.37225 7.33693 2.65628 1.78367 4.28404 9.81955 9.62207 1.31293 8.73206 5.6452 4.42752 3.82091 6.95464 12.0816 5.64077 0.0750801 1.81202 1.17141 6.87537 2.04145 5.32611 4.63241 3.19569 0.139196 1.04443 9.59717 7.43796 5.32519 10.0555 12.502 4.81071 0.423982 2.48639 9.61707 11.6472 8.57127 0.389497 3.17947 10.8078 6.71018 5.96487 5.65214 1.73864 7.17029 5.40111 5.49786 7.18639 11.7405 10.2681 8.68811 5.6017 11.2792 3.15172 0.755036 11.9031 11.3474 11.3835 5.37972 7.56116 7.96952 12.2727 9.90863 8.22539 7.1329 5.31246 12.1793 4.19134 11.1119 11.3791 10.5721 8.38683 1.69461 5.61875 11.4975 4.63553 11.3653 0.608157 9.28658 12.4395 10.3091 10.8512 7.91911 2.87371 4.53857 0.125307 4.86552 10.3913 6.38685 11.6342 0.279576 8.41109 2.17712 7.18974 4.91082 3.5028 0.086701 6.36435 9.5774 2.87594 10.9885 5.45883 2.73628 5.69534 2.70302 2.12616 1.55798 8.73034 10.602 9.82337 1.84503 3.70531 3.68353 6.93873 3.96681 0.64884 0.447676 2.22457 7.68008 4.1794 1.06662 9.33822 0.85951 4.84523 6.08485 2.43731 5.94376 2.68854 6.78703 9.97881 4.15478 4.75418 8.05746 9.01204 3.75534 4.73232 5.13834 2.16809 10.2234 4.88182 12.0567 1.3178 10.7973 10.833 5.92458 9.06969 7.78131 6.18783 1.86024 -0.0680713 7.1982 1.37716 3.49177 11.1674 8.55113 0.362343 11.0102 3.12262 9.65075 1.23152 3.41124 9.77747 9.04667 4.36477 6.80967 2.12252 8.30167 12.6269 8.59709 4.23601 8.48633 11.5585 5.11571 8.42209 4.16596 5.5062 6.27113 4.96229 7.04037 7.65747 11.634 2.44717 11.135 3.75487 3.7141 11.1704 6.52624 6.09424 6.31319 0.12469 6.45238 3.51696 8.64719 0.0354532 1.57984 0.829689 9.4191 1.18323 1.44202 5.18402 1.22048 11.9386 6.84497 6.20457 5.00883 3.93236 6.14875 2.20228 3.06619 11.3249 3.17913 8.9989 0.777032 7.03057 7.83927 10.2517 12.2083 0.456709 10.077 11.3899 3.16704 8.78357 4.26795 8.60671 0.497195 4.32104 1.21982 10.5271 4.95995 1.26638 4.99911 3.71078 8.79228 7.93093 12.2502 8.46623 4.58644 2.72637 11.5444 8.88409 8.00805 9.55367 1.61973 3.09951 11.1382 6.35326 5.78312 9.77516 3.74707 1.95704 4.14687 2.51758 11.0677 0.93539 3.50753 5.68461 7.57494 6.32359 0.616469 10.5834 8.53079 3.56812 2.87369 1.15374 4.52984 9.23919 1.4821 11.5223 11.0688 5.94866 10.6508 9.59392 0.119196 1.81848 2.74496 2.70358 12.5554 3.05597 0.24135 5.89516 3.82329 10.8933 1.3843 5.62389 2.24634 9.0468 10.1704 7.67523 11.1054 12.1351 5.1134 7.22767 2.10897 0.967119 6.24303 11.718 0.47609 10.8128 8.88637 11.2267 9.35119 1.93775 9.93727 6.17667 3.94007 8.3036 1.27921 0.901453 7.0325 3.49099 10.4363 12.5362 9.33225 6.89148 2.12551 8.67808 2.33538 8.40308 8.96918 2.08789 10.7897 3.67293 6.17394 3.0039 2.79843 7.13296 2.36577 9.10166 7.17628 9.13563 0.285321 10.6478 9.89993 9.38277 12.2366 4.90149 12.3789 1.32781 5.68113 5.93342 12.5755 4.47255 4.22717 2.28213 3.84788 10.8574 11.0292 4.1069 10.0752 2.9636 9.47857 1.42584 8.12717 7.83583 7.07959 5.71064 3.54289 5.853 10.3496 7.5803 9.75002 7.06922 10.8533 7.13732 11.968 11.9165 8.44616 9.29967 10.9757 2.25024 0.640166 5.86384 9.75055 1.36132
9.52281 2.80803 4.83745 11.7248 3.08063 2.1075 6.56035 10.8027 5.95203 4.6451 6.18474 9.01481 2.23256 9.88191 11.9405 6.80088 5.03435 11.5142 9.79671 10.9164 11.5348 5.54582 2.0451 10.0741 9.09933 12.5547 1.90639 9.2723 7.36736 11.1354 3.11936 2.47475 12.1907 5.02489 3.44713 3.81903 9.98619 4.37421 9.96012 9.90818 12.3011 8.85687 3.10451 12.4658 10.0648 11.6249 5.01814 5.24951 6.87867 4.21332 8.71647 12.1504 11.1761 7.08145 4.16805 8.58904 1.59114 2.12646 10.6116 2.93771 11.3801 7.16742 8.20049 11.4828 9.88115 3.55294 9.42423 5.235 2.8834 0.178935 12.334 10.1017 8.83094 9.39149 8.26843 4.89803 0.882515 5.19568 2.01877 5.13377 10.9668 8.39146 10.0469 3.55807 1.04542 7.28508 2.90792 7.72892 1.21636 7.28644 1.86104 1.72313 3.39393 1.02535 9.07032 8.70511 5.66245 11.226 2.60563 2.60828 4.346 1.80285 9.85077 1.48642 11.9343 7.51664 9.39669 0.538413 1.59506 5.45365 7.72898 11.1316 2.08338 7.39255 7.60261 2.73724 1.72341 4.39281 9.76599 9.60119 1.38741 8.68574 5.59902 4.3388 3.83488 6.83196 11.9615 5.60507 0.397785 1.83755 1.31149 6.83934 2.04539 5.22522 4.60857 3.22098 0.0959769 1.16273 9.72417 7.50549 5.49853 10.0316 12.3695 4.69901 12.5939 3.13871 10.2779 11.6307 8.53204 0.430997 3.18252 10.9202 6.66726 6.0758 5.84544 1.95437 7.22285 5.5123 5.37156 7.29382 11.693 10.2203 8.64438 5.55809 11.1359 3.20456 0.6713 11.8692 11.3961 11.2907 5.29675 7.88087 7.8988 12.2372 9.95519 8.29336 7.28869 5.41154 12.0784 4.20337 11.199 11.4055 10.3583 8.20324 2.21845 5.8334 11.723 4.30591 11.3122 0.502816 9.24007 12.3773 10.2157 10.9441 7.75107 2.83612 4.59228 0.0462801 4.87718 10.4116 6.49125 11.6707 0.270853 8.25141 2.24774 7.17081 4.96231 3.51524 0.240425 6.21593 9.48598 2.87577 11.0234 5.33654 2.71714 5.74222 2.7736 2.15263 1.44849 8.90495 10.5687 9.78075 1.97043 3.64542 3.41643 7.0775 4.05915 0.712519 0.344303 2.18871 7.41439 4.19904 1.15016 9.28673 0.931646 4.75389 6.10546 2.42792 5.98652 2.55703 6.76896 9.83876 4.27479 4.5924 8.07053 8.92641 3.7262 4.55697 5.13291 2.22873 10.186 4.77668 11.9822 1.49244 10.7731 10.5756 6.15267 9.5145 8.00752 6.0834 2.28758 -0.017273 7.06678 1.4607 3.42134 11.043 8.61147 0.248421 10.8945 2.82866 9.38444 1.10167 3.37121 9.75162 9.0973 4.48984 6.70319 2.32195 8.42836 0.003038 8.38127 4.11426 8.48324 11.6045 5.1837 8.6725 4.65198 4.84654 6.3866 5.03515 6.9643 7.56311 11.4443 2.18155 11.0847 3.72406 3.87413 11.1944 6.38181 6.4185 6.34607 0.153926 6.34641 3.38832 8.49597 12.5764 1.65042 0.666346 9.29748 1.4848 1.66712 5.10053 1.22874 12.0684 6.71307 6.15884 5.00732 4.02006 6.35869 2.47732 3.01098 11.2295 3.42156 8.92092 0.753316 7.02569 7.86969 10.0617 12.1183 0.388656 9.99766 11.3034 3.03784 8.62064 4.36941 8.69151 0.407264 4.25547 1.39559 10.5799 4.85007 1.49252 4.88616 4.04761 8.69112 7.91097 12.3082 8.42011 4.51033 2.94185 11.3296 8.87719 8.10373 9.51693 1.73781 3.15784 11.0151 6.23532 5.89119 9.84689 3.92221 1.85678 3.77279 2.4546 10.9867 0.959448 3.43119 5.60544 7.56473 6.38508 0.559547 10.7982 8.88665 3.40151 2.81417 1.03044 4.66924 9.2243 1.28239 11.4788 11.1628 6.1193 10.4238 9.6788 0.156629 1.70225 2.71822 2.55209 12.518 2.89916 0.290739 5.7696 3.93756 10.7739 1.26579 5.60677 2.15206 9.17722 10.0836 7.87319 10.7446 11.952 5.11841 7.21359 2.29296 0.833694 6.12856 11.794 0.489975 10.7699 8.76065 10.9559 9.17071 1.995 10.3617 6.31675 4.09004 8.2822 1.32455 0.719005 6.82128 3.49828 10.5007 0.0226499 9.33929 6.71207 2.19379 8.63556 2.38977 8.23999 8.95493 2.16907 10.678 3.70134 6.22639 2.99111 2.83423 7.1478 2.39411 9.21903 7.14553 9.14733 0.254767 10.6774 10.2267 9.22307 11.9392 4.98073 12.3091 1.32821 5.81492 6.05769 0.145639 4.52319 4.35289 2.16447 3.83337 10.806 10.9859 4.14576 10.081 2.88283 9.46036 1.50562 8.10462 7.93941 7.16989 5.57151 3.38807 6.02699 10.2523 7.56343 9.81032 7.08793 10.8681 6.90516 12.2372 11.9461 8.40271 9.33225 10.7661 2.21421 0.900744 5.76753 9.65553 1.22218
9.43226 2.7816 4.63648 11.895 3.14119 2.00926 6.44527 10.8426 5.85801 4.56751 6.32 9.04345 2.27669 9.90037 12.025 6.85241 5.21275 11.4911 9.82907 11.0904 11.6725 5.60162 2.06435 10.0094 9.12025 0.0575598 1.97589 9.12719 7.5457 11.1992 3.17803 2.61601 12.2187 5.02338 3.4192 3.83659 9.95275 4.34964 9.92206 9.84615 12.3379 9.0194 3.18939 12.4808 10.136 11.7184 4.97862 5.13141 6.9157 4.1493 8.57793 12.1213 11.1025 7.18781 4.05848 8.71296 1.76382 2.10984 10.6498 3.14611 11.2602 7.28693 8.09443 11.5355 9.95507 3.50609 9.37206 5.13037 2.6218 0.25582 12.2678 9.95674 8.88672 9.49043 8.23795 4.96353 0.948764 5.34817 2.01368 5.07391 11.0184 8.35044 10.0504 3.56405 0.923971 7.25837 2.94456 7.69465 1.10951 7.24704 1.93562 1.70029 3.53245 1.09293 8.86679 8.73876 5.64059 11.1494 2.72767 2.44331 4.25536 1.80215 10.2374 1.55896 11.8349 7.33505 9.55266 0.537894 1.50964 5.29252 7.64348 11.1769 2.10325 7.32471 7.44571 2.73515 1.59969 4.25183 9.80244 9.55724 1.34004 8.74371 5.63453 4.2792 3.90402 6.94551 12.0076 5.55806 0.124581 1.74082 1.28868 6.9288 2.10808 5.24825 4.51159 3.2267 0.0613481 1.13263 9.8183 7.43932 5.35453 10.0187 12.3114 4.86051 12.6269 3.02941 10.2269 11.7518 8.53602 0.318902 3.15248 10.9871 6.71076 6.03311 5.88609 1.89942 7.20082 5.46322 5.37544 7.13664 11.6604 10.2615 8.69842 5.68446 11.1705 3.04973 0.702726 11.9242 11.3716 11.2007 5.44655 7.61372 8.12759 12.1067 9.73892 8.18621 7.17704 5.58997 12.1634 4.20637 11.1814 11.609 10.5149 8.28225 1.8832 5.76366 11.6632 4.31892 11.307 0.584284 9.33248 12.2804 10.1206 10.9098 7.74313 3.00631 4.48607 0.0290844 4.79407 10.3818 6.28176 11.5909 0.189987 8.3799 2.03563 7.1412 4.89786 3.4708 0.249535 6.21194 9.47615 2.96786 11.14 5.42019 2.78538 5.71714 2.79621 2.25148 1.47006 8.92582 10.6782 9.93475 1.98417 3.65995 3.55224 7.06058 4.19778 0.67858 0.316109 2.41091 7.32102 4.20795 1.08639 9.4009 0.8804 4.65984 6.05583 2.33498 5.87852 2.59981 6.70156 9.88978 4.18349 4.6012 8.0672 8.81743 3.75414 4.67179 5.07776 2.24532 10.1966 4.95003 11.9709 1.37431 10.8411 10.7845 5.88936 9.01483 7.88213 6.06085 2.10343 12.6479 7.06665 1.40792 3.65316 11.2465 8.49524 0.301645 11.0173 2.94841 9.55637 1.09026 3.53058 9.74791 9.08312 4.566 6.89436 2.30154 8.36254 0.0358018 8.52954 4.27765 8.35225 11.4984 5.24362 8.60627 4.40833 5.05928 6.36908 5.05475 6.94021 7.60577 11.5509 2.43117 11.0944 3.58248 3.75306 11.3044 6.41026 6.17374 6.23587 0.179696 6.54545 3.37535 8.53075 12.7064 1.68818 0.585302 9.0789 1.38041 1.41378 5.17203 1.16356 11.9014 6.71871 6.07391 5.15753 3.99183 6.34105 2.35528 3.09053 11.2134 3.17666 9.01273 0.843228 6.90147 7.81205 10.2201 12.203 0.477912 10.126 11.3228 3.17679 8.64039 4.43165 8.63681 0.666515 4.22177 1.19267 10.7397 4.7973 1.38184 4.92504 3.70268 8.68679 7.80226 12.366 8.61511 4.78093 2.74775 11.5093 9.03822 8.11685 9.52907 1.6483 2.9821 11.0909 6.24532 5.85724 9.66221 3.97991 1.87208 3.92241 2.58738 10.8827 1.0619 3.40778 5.59587 7.56758 6.27398 0.509412 10.8091 8.80396 3.40247 2.67311 1.15456 4.47503 9.36214 1.42095 11.5771 11.0899 6.00204 10.28 9.74042 0.291869 1.82871 2.68921 2.53291 12.5644 2.96001 0.227391 5.68966 3.77712 10.9123 1.09879 5.67574 2.29205 9.09734 10.0826 7.81534 11.1014 12.1124 4.98274 7.29311 2.16218 0.910283 6.18323 11.777 0.373209 10.5769 8.87539 11.1558 9.0001 2.02853 10.2751 6.16196 4.04186 8.29678 1.26696 0.878167 6.75143 3.6034 10.448 12.4708 9.22525 6.86756 2.16883 8.68866 2.61353 8.3799 9.097 2.01719 10.8211 3.48476 6.02619 2.88671 2.80807 7.19222 2.39634 9.13128 7.29827 9.17807 0.448339 10.757 10.244 9.38673 12.0521 4.9828 12.3055 1.42297 5.83414 6.03763 0.0416635 4.55822 4.39499 2.34452 3.89013 10.8591 11.035 4.10827 10.1091 3.00394 9.47027 1.30304 8.06193 8.08628 7.10671 5.36013 3.36998 5.93927 10.2648 7.40146 9.83387 7.10877 10.8703 6.98162 12.1558 12.0577 8.24889 9.4124 10.939 2.19465 0.833564 5.67079 9.76067 1.24822
9.38581 2.86819 4.76566 11.9061 3.09769 2.01585 6.6009 10.8317 5.92771 4.5605 6.2536 9.02687 2.20028 9.97063 11.9289 6.68414 5.08807 11.5472 9.84572 10.9567 11.4949 5.49611 2.14122 10.005 9.18668 12.6543 1.95451 9.07175 7.44492 11.2714 3.11647 2.49831 12.1229 5.11464 3.50306 3.86091 9.79419 4.44155 10.1065 9.8815 12.2822 8.88359 3.1147 12.3671 10.0031 11.6423 4.97116 5.01522 6.87485 4.27933 8.65264 12.155 11.0672 7.05181 4.1226 8.62085 1.68182 2.16211 10.6244 2.96623 11.3746 7.15353 8.20179 11.6143 10.0825 3.51206 9.40113 5.38026 2.57834 0.183754 12.322 9.94066 8.88678 9.32836 8.22742 4.88456 0.927013 5.34074 2.06184 4.97493 11.0134 8.45125 10.171 3.60983 1.08614 7.30461 2.85806 7.68245 1.15945 7.34013 1.91217 1.62628 3.48835 1.04273 8.96908 8.75628 5.68749 11.2568 2.63841 2.54936 4.23337 1.87063 10.0937 1.47798 11.9551 7.52533 9.49774 0.610879 1.5671 5.32325 7.57041 11.1005 2.25381 7.3845 7.56543 2.74688 1.72359 4.34368 9.76837 9.60487 1.37779 8.7686 5.56851 4.33129 3.92919 6.84312 12.0281 5.53598 0.0750795 1.76347 1.25311 6.98624 2.1049 5.2978 4.52956 3.20585 0.0950915 1.12459 9.74477 7.48737 5.49904 10.0081 12.4966 4.87669 -0.0244076 3.03399 10.1022 11.62 8.48863 0.369039 3.21648 10.8699 6.70429 6.05058 5.76414 1.88657 7.10915 5.47715 5.51307 7.2905 11.6604 10.2572 8.57089 5.51699 11.2611 3.11157 0.698459 11.8806 11.397 11.3462 5.33214 7.66146 7.91971 12.294 10.0097 8.26463 7.23728 5.50525 12.116 4.23614 11.23 11.3571 10.4962 8.31747 1.84356 5.68004 11.6683 4.19152 11.3429 0.477949 9.21112 12.3095 10.1541 10.8237 7.79496 2.96484 4.48401 -0.00210927 4.87149 10.2985 6.37035 11.6241 0.137338 8.30927 2.08067 7.09897 4.96849 3.51312 0.132808 6.2653 9.44173 2.88586 11.2117 5.4381 2.80975 5.74497 2.71734 2.10408 1.47184 8.91074 10.514 9.81522 1.90498 3.62454 3.47493 6.97138 4.07506 0.672479 0.31306 2.31941 7.44188 4.19018 1.01726 9.23899 0.930333 4.71619 5.97457 2.42214 5.96881 2.63616 6.80917 9.90789 4.24598 4.62194 7.9961 9.02735 3.75124 4.68595 5.04141 2.30228 10.2614 4.86432 11.9855 1.31583 10.7712 10.8597 5.81773 9.27348 7.90101 6.22214 2.07279 0.0513246 7.08906 1.38896 3.46178 11.0627 8.58646 0.408931 11.0773 2.9883 9.38963 1.16313 3.40405 9.8024 9.06507 4.61556 6.78788 2.32625 8.2954 0.122313 8.65468 4.14692 8.4779 11.569 5.18388 8.48943 4.39864 5.59248 6.06313 5.09442 7.04187 7.61389 11.6789 2.38171 11.1469 3.62097 3.73064 11.0941 6.33807 6.25638 6.34947 0.145365 6.38661 3.52437 8.61219 -0.076402 1.69403 0.669996 9.04644 1.37278 1.59936 5.21393 1.13862 11.9953 6.7478 6.22371 5.06634 3.95425 6.17019 2.44052 2.85495 11.1031 3.2843 8.95089 0.751269 6.91788 7.89865 10.1476 12.2581 0.393533 10.1479 11.3748 3.12128 8.64621 4.43357 8.72709 0.634293 4.1597 1.18911 10.6175 4.79582 1.35574 4.84405 3.80998 8.8005 7.90038 12.2442 8.4855 4.70872 2.95735 11.5559 8.82412 7.90378 9.56822 1.70679 2.99407 11.0288 6.17541 5.83187 9.8723 3.97882 1.87159 4.11883 2.48625 11.024 0.883158 3.28584 5.72371 7.5074 6.35302 0.610044 10.6322 8.65263 3.64162 3.05318 1.03406 4.43558 9.14536 1.39051 11.5848 11.0894 5.99781 10.542 9.72349 0.279411 1.70391 2.67324 2.57873 -0.13825 2.87254 0.245863 5.78157 3.8185 10.7779 1.31585 5.59285 2.25525 8.94906 10.014 7.82374 10.85 11.9472 5.09096 7.24249 2.40038 0.900328 6.10315 11.7404 0.36622 10.7163 8.80131 11.2907 9.17831 2.01697 10.0653 6.20563 4.03504 8.37786 1.40339 0.902895 6.85375 3.48725 10.4332 12.5953 9.25045 6.72504 2.18376 8.72203 2.3892 8.44635 9.06136 2.17285 10.7441 3.56949 6.13355 3.02442 2.84144 7.08877 2.44008 9.10995 7.14527 9.19282 0.191251 10.7211 10.0926 9.20777 12.0205 4.94915 12.6499 1.60148 5.63564 5.97099 0.0756563 4.4115 4.37043 2.3828 3.7938 10.8519 11.0762 4.18468 10.1774 2.82667 9.43865 1.45603 8.12028 7.94188 7.04907 5.7274 3.61414 5.75196 10.4464 7.53396 9.81091 7.19372 10.8197 6.87552 12.1799 11.9541 8.39205 9.37259 10.9724 2.12593 0.859014 5.84721 9.83888 1.15252