-132858.1769559
-132858.1131937
-132857.8279213
-132857.4569724
-132858.8900521
-132858.0628236
-132858.8928385
-132858.1930243
-132858.3200214
-132857.8296530
-132857.9104344
-132857.4065725
-132857.6216358
-132858.6708778
-132857.9311556
-132857.5436921
-132858.4126556
-132858.5735410
-132857.2506681
-132857.2461667
-132858.4954144
-132858.6216560
-132857.7184916
-132857.8675823
-132857.8359823
-132858.8217242
-132857.3696075
-132857.7118587
-132858.2004035
-132858.1387625
-132857.2442004
-132858.1340186
-132858.0557781
-132857.6991602
-132858.9309007
-132857.7359377
-132857.8028537
-132858.4946685
-132857.9802214
-132858.8107902
-132859.7379813
-132859.5739774
-132858.3550846
-132859.1140385
-132859.1557601
-132858.7631064
-132858.1984283
-132858.3910764
-132859.3123860
-132858.8915885
-132858.3465180
-132858.0391037
-132859.3685118
-132859.1450373
-132858.8334375
-132858.7233110
-132859.2237537
-132859.3081446
-132859.6450337
-132858.0690911
-132858.6348137
-132858.9667810
-132858.7926342
-132860.0141546
-132858.7297429
-132859.2969018
-132859.2478792
-132859.2281923
-132858.8541215
-132858.4438409
-132858.1298719
-132857.6028929
-132859.1735960
-132859.4200019
-132859.4499144
-132859.0821006
-132858.5426182
-132857.4860163
-132858.6293849
-132859.0455145
-132858.9747892
-132858.3327413
-132858.6343773
-132858.2625003
-132858.6978338
-132859.0017081
-132858.7319412
-132859.5748969
-132858.9711901
-132859.1263112
-132858.6828646
-132859.0942336
-132858.9119867
-132858.6559749
-132859.0642524
-132858.4684734
-132859.0527284
-132859.3436895
-132858.8727707
-132858.3900283
-132859.5255436
-132858.5704137
-132859.7125980
-132858.0294296
-132859.3406996
-132858.9555322
-132859.0077015
-132859.3266849
-132858.4062794
-132857.8678641
-132859.5469655
-132858.5098515
-132859.1184993
-132859.1998448
-132858.1204032
-132859.5123032
-132859.3698450
-132858.2592681
-132858.3430923
-132859.5745247
-132858.4224658
-132858.8993821
-132858.6119913
-132858.6558745
-132858.0787187
-132859.3590215
-132859.1902079
-132858.4157234
-132858.3774546
-132858.7927824
-132859.2169887
-132857.9575686
-132858.3556476
-132858.4659899
-132858.3504651
-132859.4517630
-132859.5957810
-132859.0340780
-132859.8785488
-132859.0824532
-132858.0724492
-132858.1216003
-132858.6540392
-132858.1225619
-132858.8649477
-132859.4226561
-132859.7294195
-132858.5990301
-132859.0992614
-132859.6487755
-132858.9879696
-132859.3565271
-132858.8079403
-132859.8071175
-132859.2035345
-132859.2774432
-132859.3672637
-132858.4673321
-132859.2133205
-132859.4652111
-132858.2468955
-132858.1941177
-132859.0480231
-132858.3021125
-132859.5132175
-132858.5190624
-132858.9135094
-132859.3338827
-132859.4767703
-132859.9800724
-132859.6085394
-132859.7196768
-132859.1150010
-132859.7259561
-132858.9272005
-132859.5321697
-132859.7519837
-132858.9678581
-132860.0457530
-132858.6496943
-132859.5629790
-132859.9833341
-132859.5440513
-132859.7561180
-132858.7153683
-132859.1108421
-132859.0701696
-132860.4977330
-132860.7908391
-132859.1732669
-132860.0439238
-132859.0253730
-132860.1854784
-132859.1429240
-132860.5068571
-132860.0604444
-132859.6152500
-132858.9298116
-132859.9217417
-132859.8155238
-132859.4076090
-132858.9972012
-132858.6352831
-132859.2434654
-132858.9087808
-132860.0939372
-132859.4321053
-132859.5795786
-132858.8409035
-132859.6359397
-132859.5634858
-132859.6157964
-132859.7248711
-132858.6090482
-132859.9305109
-132859.6415894
-132859.7431993
-132859.6566508
-132858.9393960
-132859.2909262
-132859.4445286
-132860.0956529
-132858.7826405
-132859.3799626
-132860.0802382
-132859.7014327
-132859.2163877
-132860.3606761
-132858.5760091
-132858.9926057
-132859.3487529
-132859.4046971
-132859.4253031
-132860.1671938
-132859.5040654
-132859.4113917
-132858.8944419
-132860.1828558
-132858.6559482
-132858.5607177
-132859.3911384
-132859.4364851
-132858.2653626
-132858.7637560
-132858.6627358
-132858.3330159
-132858.4262999
-132860.7978891
-132860.4001637
-132861.1008769
-132860.0235063
-132861.4227899
-132860.4380330
-132860.6923466
-132860.6262371
-132860.3682048
-132860.7080513
-132860.4389269
-132860.6809325
-132860.7831499
-132860.5429418
-132860.4468482
-132860.7711866
-132860.9703402
-132861.3959304
-132860.8637617
-132860.7629225
-132860.5967130
-132860.7816835
-132860.9925065
-132860.0381033
-132860.0394520
-132858.9847684
-132860.0570590
-132860.2171511
-132860.1035979
-132860.8142718
-132860.5504598
-132860.1584034
-132860.2968416
-132860.4301456
-132858.5555771
-132858.8619925
-132859.4924341
-132860.6645319
-132859.2032106
-132859.0964464
-132860.6992264
-132860.7152762
-132859.8125373
-132860.6772803
-132859.5447089
-132860.5275431
-132859.3447243
-132859.7506038
-132859.6409930
-132859.7802515
-132860.0564102
-132859.4520326
-132859.8696963
-132860.3957762
-132860.1676702
-132859.6064010
-132858.6248323
-132860.0926350
-132859.3566683
-132860.3232219
-132860.1864172
-132860.2563492
-132860.4010281
-132859.2850973
-132859.7485351
-132862.0559062
-132861.0846958
-132860.7934316
-132861.1379620
-132860.2575561
-132861.6290892
-132861.4709409
-132860.4804619
-132861.3536825
-132860.6362363
-132861.0677311
-132862.1249201
-132861.0838794
-132861.4652034
-132861.4534549
-132860.7840864
-132861.5714262
-132861.9024892
-132861.5399394
-132860.8614010
-132861.0100411
-132860.6898023
-132860.7867810
-132860.9223086
-132860.9491156
-132860.8345154
-132861.4110671
-132860.7609316
-132861.5469218
-132860.9567426
-132860.8736111
-132861.2888483
-132862.0747808
-132860.4925853
-132860.1232993
-132861.8310977
-132861.1304525
-132860.2580549
-132860.3746743
-132861.6876557
-132860.5390644
-132859.3352405
-132859.5474973
-132859.4755687
-132859.2303006
-132859.7917965
-132859.6240636
-132859.8044689
-132859.4471851
-132859.1836335
-132859.2388766
-132860.1148423
-132859.7888700
-132859.2904396
-132860.1366340
-132859.2009290
-132859.9966574
-132859.3718094
-132859.2753851
-132859.8476543
-132859.3359315
-132858.8705927
-132859.2857395
-132859.5411057
-132860.6389248
-132860.4749215
-132859.8661211
-132859.8027644
-132858.1082112
-132859.2670954
-132859.3367891
-132859.7145014
-132858.7420706
-132859.7064958
-132859.3256815
-132860.3060662
-132859.3324788
-132860.0166536
