   1.4467722    0.3634359   -0.3760271   -0.7195138   -1.2922185    0.8326228    0.3227420    0.0435838   -1.3612290   -1.0343100   -0.5730272   -0.5557571   -0.2248842    0.2743677   -0.3347742    2.0035068   -0.7229390   -0.2390700    0.4385178    1.3580352   -0.7269273   -0.0728543    1.2574577   -0.5211927    0.9441995   -0.0048131    0.0336120    0.2524799    0.6275058   -0.0798744    0.1324499    0.2131281   -1.4408145    0.0336023   -1.4551612   -0.3387363    1.0554409   -0.1119366    0.6269170    0.8758379    0.5116040    0.9390953   -0.0465725   -0.7526342    0.7342585    0.5156247   -0.1712155   -2.2038107    0.0453353   -1.2665594   -0.2910480   -0.6589164   -0.6436703   -0.2072187   -1.1712388   -0.6789623   -0.3570472   -0.8407527    0.4586027   -0.3450113    0.6837235    1.4494426    1.1964819    0.4085094    0.4727567   -0.0006829    0.5817967   -1.1518064   -0.0081823    1.4224593    0.1771182    0.6609070    0.7739039    0.1055695    0.4020811   -0.7612443    0.7681555   -1.3751387   -2.7096004    1.1714224    1.2080642    0.0926857    0.9618583    0.4833985   -2.3590638    0.6742855   -1.4395587   -0.9995528    1.8149616    0.9992535   -0.6051567    0.1887993   -0.1573536   -1.1738269   -0.2539871    0.2754784    0.3359019   -0.8209778    1.4799518   -0.7666647    0.3933404    1.0714928    1.1445749   -1.7246937    0.3951684    0.2943123    0.2625956   -0.0513393   -0.6146168    0.4003163   -0.1833449   -0.0243777   -0.8893722    0.4483337   -0.4752594    1.1405218    2.1498638   -0.7317893    0.7134012   -1.0498734   -1.2072312    0.7575337    0.3681425   -0.5274734   -0.6089409    1.1555844    0.5150241    0.0214291   -0.5630862    0.1641856    0.4983664    0.6791819    0.1374677   -0.8064788   -0.4558270   -1.9071480    0.9832628   -0.6230943   -0.7448155    0.0990677   -0.3542833    0.4108542   -1.1374344   -1.3388213   -1.2955419   -0.7195143   -0.0462367   -0.5011884   -0.3808926    0.1617106    0.0099605    0.7270898    0.2556264   -0.2548340    0.1568106    0.9655273   -1.0603862    0.1074644   -0.9638042   -0.8858462    0.7434934    0.5672175   -1.1642392   -0.5995219    1.1658256    0.0659509    0.2428495    0.1453682    0.1977616   -0.0223773   -0.4090987    0.7854199   -0.4810253   -0.5465911    0.5662076   -0.7282144   -0.4017536    0.3365622   -0.3538986   -0.6657083   -0.4275279   -1.1219446   -0.1055788   -0.0803522    0.4650516   -0.5972701   -1.1024232   -0.4458465    0.0358253   -0.0913380    0.1702045    0.0636369   -0.2582628   -0.7658327    0.1938186   -0.6041823   -0.0939903    0.4232866   -0.8143397   -0.7785474   -0.0777661   -0.5712423   -0.1473947    0.6672617    0.7582685   -0.5209386   -0.1532743   -0.8069755    0.1389450    0.7313398   -0.8252474    2.4405231   -0.7463114    0.5588105    0.8381666    0.3180847   -0.5013283    0.6396640   -0.0202685    0.7907848   -0.9716491   -0.7960160    0.3967235    0.6553215   -0.9103838    0.6030731    0.7557509   -0.2255501    1.1521257    0.1441042   -0.1336044    0.1866653    1.0712527    0.1337098   -0.4436852   -0.1121968    0.3225939    1.2404853   -2.0247827   -0.3106007   -0.0731572    0.0226540    0.3991310   -0.3384586    0.1947308    0.8691721   -0.3587770    0.3194921   -1.1174112    0.6970814   -0.7464780    0.4912167   -0.2818249    1.5743823   -0.0534656   -0.0790892    0.0578385   -0.4999343   -0.6240775    0.1892199   -0.5656388    0.3024524    0.4850620    0.5005724   -0.3472333   -1.4132748   -0.1207761   -0.2171004   -1.2729825    0.2319887   -0.6048847    0.2068248   -1.1125662   -0.3342024    0.2395123   -0.2799208    0.4949597   -0.3241453   -0.8938861    0.0811250    0.4282226   -0.4185377   -0.6319672   -0.4752152    0.3473685    0.5886394   -0.6577913    0.1337946    0.4354057   -0.6160854    0.4637362   -0.2698549   -0.1072140   -0.5138804   -0.8145752    0.3379480    0.3166264    1.0423288    0.2477105    1.1209089    0.6722121   -0.2618716    0.3198721    0.9017084    0.3432239    1.7300375    0.3327040    0.1665561    0.4092051   -0.2459652    0.0388386   -0.6711770    0.5691936   -0.1904108    0.0709841    0.4836808    0.5031780    1.0359087    0.4198783   -0.4335365   -0.8204229    0.6244410   -0.4790374   -0.5949633   -0.7520074   -0.2920528   -0.1943549   -1.0860669   -1.0954360    1.0411183   -0.6459792   -0.2011668    1.3332173    0.1347171    0.6109540   -0.7663865    1.3531779    0.6716532   -1.0235361   -0.3973097    0.2730765   -0.4258551    0.6561906    0.4124550   -0.3017325   -0.7174502   -0.2821977   -0.6009242   -0.7174368   -0.7189502    0.0567391    0.0748623    0.5683452    1.2961842    0.7212426   -0.1960400    0.2144512    0.0878464    0.9861435   -0.4785242    0.8280689    0.3504251    0.2794358    0.0835259    0.0031414   -1.5834094    0.4256144    0.7002104    0.7256968    0.6001143   -1.0504031    0.4516078   -0.6485055   -0.3473495   -0.2429426    0.1742443   -0.1163435    0.1146013   -0.3798056    0.1141992   -0.3366373    0.5791212    0.0285171    0.5943396    1.2576942    0.3556804    0.0932478    0.3812377   -0.6291652    0.7368404   -0.6284849   -1.3068610    0.8101637    0.1691396    1.3830253    1.3141264   -0.3209396   -0.5777775   -0.5309788    0.4924611   -0.4818733    0.8190788   -0.6350396    1.1746219    0.0458844    2.3346378   -1.0355791   -0.8101349    0.7011021   -0.8500081   -0.9180303    0.2231914   -0.4408061    0.0686151    0.6819124    0.5705070    1.3206508    0.0665659    0.2311973    0.5747601   -0.0319938   -0.4084575    0.7191224    1.0547225   -0.2255686    0.1003425    0.9313296    1.2364250   -0.2809626    0.1006464   -0.5808094   -1.7355293   -0.4516088    0.7700982    0.1955232   -0.1174789   -0.4949494    0.0983812    0.1505469    0.5947607   -0.1632158   -0.4679652   -0.7121280    0.1999162   -0.0007137   -0.8846028    0.4311989    1.5576012   -0.0874582    0.0344950   -0.9164984    0.7591391   -0.0164510   -0.8249429    0.5798812   -0.3533669    0.7752455    0.3774052    0.7312719    0.7644886    0.2488238    0.1552659   -0.9093430   -0.6985032    0.0652017   -0.3612618    0.0599396   -0.6573938   -0.1177257    0.1239843   -0.1477979    0.2276636   -0.5785268    0.4892194   -0.6854713    1.0841843   -0.3428444    0.1826523   -1.3395042   -0.8586429    0.4227662    0.3673460    0.4399720    0.5680654    0.4896236   -1.2183641 
   0.9929029    0.4405623   -0.9472159   -0.6532780   -1.1127107    1.6643632    1.4991230   -0.1742612   -2.3058013   -0.6102568   -0.3195955    0.4375706    1.0158916    0.1497545   -0.7467562    0.2691550    0.1263759   -0.0325949    1.5864053    0.3186102   -1.1213753   -1.0186062    0.3994982   -0.5815607   -0.5812223   -0.2786820    1.7444819    0.4939184    1.5002311   -0.1521605   -2.4279087   -0.6727109    0.7132907   -0.0503895    0.5515749   -1.0494888   -0.2100808    0.1575670   -1.4012961    0.3314986    1.2513323    1.8170606   -1.2190037    0.3526974    1.0398214    0.4362069    0.7534390   -1.2633743    0.6501834   -0.1797053    0.1001728   -0.7678778   -1.2430832    0.2916995    0.0162638    0.4641172    0.3319033   -0.7238183   -1.4137762   -0.6676021   -1.6479534    1.1581771   -0.5718840    1.1219512   -0.9357472    0.4981561    0.5878455   -0.7170615   -0.0388406   -0.1712186   -0.9365021    0.9388752    0.7179336    0.4982147    0.7028211   -0.3382344   -1.9235557   -0.2596826    0.3279444    0.2721329    0.7082199   -0.7756065    0.3506631    0.6628749   -0.0027552    1.4441949    0.6556918    0.1148404    1.4233541    0.0135749   -1.2062531   -1.0636427   -1.6591403   -0.8371881    1.0588887    1.3486733   -0.4665043    0.2520700    1.5516393    1.2245954   -1.1475435   -0.2776129    0.9391622   -0.1311767    0.1834529   -0.7891619   -1.1355452    0.9147979   -0.6386947   -0.8403372    0.2838689   -0.6289405   -0.6626296   -0.8835081   -0.6906984    0.1863135    1.6611056   -0.4046178    1.1380839   -0.2626980   -0.7314591   -0.5402615   -0.2160422   -0.2738463    0.5802982   -1.3982149    0.3435093   -1.3698725    0.8053218    0.3265997   -0.4773584    2.0078067    0.6670530    0.5208811    0.9882050    0.5878007    0.1437530   -1.2984108    0.4984986    0.6471413   -0.5129317   -0.4405957   -0.3844973   -0.4400172    0.4065991   -0.6647081    0.2179355   -1.2702654    1.3036579    1.1358475    0.2237725    0.4239211   -0.2678736   -1.2344566    0.2777950    0.8858827   -0.2807394   -2.0183524   -1.4450012    0.2061398   -0.7176538   -1.0672875   -0.6172563   -1.1295458    0.2323327   -0.7115038   -2.2063088    0.1383378    0.5738139   -0.5358829   -0.6554326   -0.4382416   -0.2295770   -0.0101399   -0.0453805   -0.4816717    0.7994340    0.6737630   -0.5103580   -0.1672832   -1.4452470   -0.4635896    0.3889063   -0.7450664   -0.5797583    1.2331273    0.3090951    0.2729438    0.3296649    0.0855489    0.0902689    0.0082142   -0.3598970   -2.2398329   -1.4086875   -0.7475486    1.1461021    0.3073544   -0.6777652    0.0797413   -0.3142167    0.6017027   -0.4652182   -0.3356782   -0.3763053    0.4068202    0.2101770   -0.4706854    0.0904083    0.2304388   -0.9198933    1.0456249   -0.7831378    0.4851226    0.7269828    0.7339480   -0.1078671   -0.5050718    1.0275675   -0.5588619    0.4894447    0.6559396    0.2310775    0.9319759   -0.6727726    0.6874521   -0.3475249    0.6564101   -0.0165960   -0.8855166   -0.3096335    1.0307444    1.0839112    0.0764595   -0.5221476    0.0357286    0.5394727    0.6102141    0.4746917   -0.4418777   -0.4707306    0.6870577    0.5136362   -0.0573058   -0.6735136   -0.0803192    0.1303349   -0.0336928    1.0035010    0.3503001    1.0244653    0.2665448    0.1520027   -0.0034329    0.3132865   -0.1286272   -0.5842187    0.8831604   -0.0946264   -0.2347732    0.0836730    0.2300984   -0.5551091   -0.3303041    0.0853134   -0.1710232   -0.3486078    0.6977206    0.2955937    0.8405408    0.2582530   -1.1381919   -1.2974193    0.5768684   -1.0426882   -0.4591077   -0.6328588    0.6248796    0.7671862    0.6016970   -0.6234162   -0.3360567   -0.0688655    0.5442354    1.0907843   -0.6485688    0.1230669    0.2765860   -0.2199631   -0.0624758    0.2857253    0.7790729   -0.4864216   -0.4632935    0.1497385    0.2433401   -0.6318083    0.1226669    0.1445634   -0.4992617    0.1871003   -1.9970245    0.1202012   -0.0664985    0.1146389   -0.0240352    0.6382247    0.3564389   -0.9413044   -0.3168855    0.4290386   -0.2596543    1.6455376    0.7041134    0.1544144    0.3920749   -0.1795068    0.0483039    0.2195924    0.5281948   -0.5593540   -1.3131216   -0.0160509   -0.0820321    1.9348897    0.0875435   -0.5497818   -0.2336013   -0.0918728   -0.3388602   -0.0604626    0.0282374   -0.1926405    0.3883211   -0.0714572    1.3211666    0.8152000    0.4190941   -0.6846810   -0.5592085    1.1995004   -0.4274101   -1.0378170   -0.0762780    0.2146312   -0.0262458   -0.2496157    0.0814654    3.7442051    0.0200916   -1.9356127   -0.3612134   -0.1473454   -0.2248734   -1.2905118    0.8021439   -0.6414350    0.0218626   -0.5393004   -0.4331221   -1.0799337    0.8869641   -1.0882024    0.5081741    1.3305593   -0.3601336    0.5498111   -0.3220123   -0.7236311    0.3102207   -0.2419877    0.8190371    0.0127480    0.8773677   -0.4539058    0.5170028    0.8376483   -0.6091075    0.1274718    0.0041107    0.6954081    0.1377577   -0.0768878    0.6365607    2.2367538   -0.2987490    0.6596004    0.4403890    0.9392316   -0.0832776   -0.6610577   -0.3611327    0.4003019    0.2655046    0.8682403    0.8877226    0.3200074   -0.1077591   -0.4203941    0.8434857    0.8016246   -1.2868475   -0.4014291   -0.7151090   -0.2689576    0.1878942   -0.8017685   -0.5651364   -0.4686938   -0.1864272   -0.1985736   -0.2612936    0.3353862   -0.2404173    0.2087135    0.7061502    0.8000675   -0.7221569    0.9909890   -0.5739373    0.7085886   -0.0328104   -0.4619863    0.3065841   -0.4734395   -0.0775990    0.0965928   -0.2825520    0.8616100   -0.1120024    0.2967862   -0.9868464    0.0134078   -0.0150687    0.7096387   -0.3283120   -0.9661984   -0.3617806   -0.1628846   -0.1504754    0.3571567   -0.1401987   -0.1351810    0.9582038   -0.4181341    0.0819781   -0.1740339   -0.8255780    0.0660352   -0.0555251   -0.1236675    0.5388016   -0.7469881   -0.6435916    0.6944949   -0.1676051    0.5135025   -0.3749786    0.5105910   -0.8641626   -0.1338645   -0.3805466    0.0899892    1.4170960   -0.0739218    0.2390916    1.3917305    0.0857864   -0.1001718   -0.2970083    0.5044491    0.7801574    0.2156550    0.4020996   -0.6977602   -0.1695160   -0.7097333    0.3431458    0.7967240   -0.2049751   -0.4774530   -0.5892822   -0.9948518    0.6940002    0.0945462   -0.2743512 
   1.2400539    0.9976065   -0.3542380   -0.5897249    1.0665455    0.5523005   -0.1807435    0.7718789   -0.8864921   -0.7536987   -0.7948471   -0.6314684   -0.8409141   -0.0950522   -0.5693844    0.6288587    1.6867025    0.8664308    0.1051155    0.0523960   -1.5274411   -1.5010714   -0.0865542    0.3132947   -0.3481399   -0.3157717    0.4450474    0.4167955    1.2357221   -0.0746453   -1.6074673   -0.5933121   -1.3365058    1.1216597    0.9427468   -0.5953094    1.6826433   -0.3386736   -0.4655442   -0.7135138    0.7117830    1.8661322    0.7372364    0.2572950    0.8960792   -0.6317491    1.4595074   -0.9167154   -3.9268661    0.3753987   -0.4774453    0.9553504   -0.6683755   -0.7400574    0.0170593    0.7869148    0.6412324   -0.7917705    0.1961886    0.9847330   -0.3390973   -0.4067065   -0.2341834   -0.4295930    1.2352248    1.1402015    1.5429182    0.8347147    0.6509419   -0.3848424   -0.9270857    0.4028499    0.8829080   -1.7860433    0.6893830   -0.5944511    0.5805749   -1.1212807    1.9174288   -0.6107360   -1.6115476    0.9948430    0.5643481    0.2273869   -0.7301736   -0.6558260   -1.0520640    1.0963019    2.0323721    1.3899205   -0.9074353    0.0174912    1.1843658   -0.8872603    0.6901379   -0.6296676   -1.0344211    1.1394399   -0.5795485    0.0192046    0.6339037    0.2488130    0.7147289    0.1740900    0.9229683    1.1944924    0.6390120    0.2265601   -1.1490486   -1.2447708    0.5482592   -0.5454351   -0.4164346   -1.6192028   -2.2139224    0.2762430    0.4711472   -0.2731058    0.7625170    0.1470708    0.0989824    1.1476643    0.6194634    0.5424336   -0.6635686    0.9672716   -0.6836767   -0.0351758    1.7520775   -1.4164800    0.7450659   -0.1607362    0.8105406   -0.1718305   -0.0512709    1.5851305    2.1388503   -0.9640350   -0.6563685   -0.4097908   -1.0905797    0.6347542   -0.1470975    1.1986632    1.3275121    0.9370457    0.4256026   -0.2062740   -0.1867933   -0.3728590   -0.8057615   -1.6516733    0.3820934    0.3467700   -1.1124474    0.8258294   -0.4321265   -0.5782408   -2.2943044   -0.7639908   -1.4816698   -0.8112724   -0.5100053   -0.8437356   -0.2546417    0.1650016   -0.1547486    0.3974485   -0.5436122    0.1949658    0.1602929    0.1082841    0.0728800   -0.3411516   -0.2869733    0.4638072    1.8058120   -0.0126051   -0.3007560    0.5018616    0.3599058    0.5612572   -0.3500440   -1.0881813   -0.0974762    0.7763012   -0.6142846   -0.3005914   -0.4747945   -0.0073323   -0.1530923   -0.0628589    1.0459597    0.3020970   -0.6757325    0.3587128    0.3187372    0.5569608    0.6460506    0.3110537   -0.3418427    0.6303998    0.1493452   -1.0585406   -0.4218689   -0.8165858   -0.1516622    2.0958084    0.8544901   -0.7519354   -0.5646315    1.7652678   -1.1203911   -0.1409613   -1.3561948    0.0794965    0.0492922    0.9103689    0.6915304    0.6447692   -0.5238224   -0.2885216    0.8038768   -0.1909868   -1.4550342    0.3109607    0.0552078   -0.0267019   -0.3718660   -0.4043653    0.9267674    0.9986853    0.3067986    0.2972191   -0.1406800    0.1170572    0.5264974   -0.6919387    0.3881067    0.3381830   -0.4196227    0.3943452   -0.0156801   -0.2191455   -0.1147216    0.1723545   -0.9966845   -0.3376364   -0.1371170    0.2988323    0.0209864    0.0367596   -0.5598904    0.6389415    0.2959891   -0.6150107    0.1194628    0.8006661   -0.7771996    0.3583919   -0.7199462    0.7914204    0.4021387    1.0745396   -0.4468651    0.7956190   -0.2965244   -0.4713806   -0.1168505    0.0144794   -0.2697176   -1.2589952    0.1870401    0.3381902   -0.0920409    0.5291739    0.3017854   -1.2177886   -0.7212169    0.0126658   -1.5035900   -1.0695938   -0.8249260    0.2043951    0.0887622   -1.6535646   -0.2665016    0.1335889    0.1239293   -0.1822152    1.5489649    1.0645637    0.2187285   -0.0566322    0.7458722    0.1401838   -0.4370764    0.4589817   -0.9544392   -0.3958801   -0.0163121   -1.6879104    0.2216014    0.2141200   -0.6981083   -0.3652233   -1.2212432   -0.0396274   -0.0394155    0.7922472   -0.2478395    0.1357990    0.2649976    0.9291513   -0.2319578    0.9234743   -0.1931666    0.2845215    0.3800648   -0.0210779   -0.8429633    0.1879441   -0.5317625    0.4014044    0.4790353    0.1287594   -0.3216174    0.1730677   -0.6473398    2.0872544   -1.0091950    0.4679112   -0.3831089    2.8292751    0.2079895   -0.3553451    1.0652903   -0.0783523    0.3598312   -0.1071029    0.0661694   -0.0482313   -0.5783550    0.3931825   -1.4501913   -0.7075170   -0.1180106   -0.6798031    1.1430590   -0.3591493   -1.0005555    0.0048044   -0.0611676    0.4715632   -0.7092756    0.0813703   -0.4684331    1.8193401   -0.7265380    0.3620742   -0.7368584   -0.3587277    0.5211155   -0.5249192   -1.5144792   -0.1199600    0.6174569    0.6775030    0.6725788   -0.7121260    1.2376340    0.0311736    0.8628014    0.0592593    0.8001842    0.2228608    0.6816028    0.3944732   -0.0998740   -0.6728004   -0.2147931    1.0132871    0.2811806    0.3174126    0.3650418   -0.0761042    0.2471644    0.1082044   -1.0685340    0.5564065    0.3065101    1.0118972   -0.4651786    0.1166510   -0.3779822   -0.8106368    0.5648521    0.3068706    0.9946903    0.0834591   -1.1201741    0.7482952   -0.6027157    0.9675066    0.2947699   -1.1547066    1.2666664    0.6523946    0.9225246   -0.1939374   -0.5047921    0.1544457   -0.5221116   -1.1531398    0.5440997   -0.1068469   -0.2196674    0.5107298   -0.9823963   -0.3323785   -0.0881215   -1.0505491   -0.6061178    0.1112928    0.0391230    0.0543387    0.0430495    0.0855124   -0.1615121   -0.2827413    0.2241458   -0.6260125    0.7029327    0.0017705    0.5819813    0.5861516   -0.2888718   -0.2823345   -0.1553199    0.4314766    1.3678059   -0.2727062    0.6579271   -0.8151532   -0.5131132   -0.8887253    0.1042686    0.3942377   -0.3247001    0.3732498   -0.4897321    0.7339839   -0.3893423   -0.5183089   -0.7908866    0.2319733   -0.1093177   -0.7306893   -0.5027332    0.9780933   -0.2427704   -0.5130438   -0.7714820   -0.4626106   -0.0610941    0.6684784   -0.9787484    0.0099147   -0.7716763   -0.3894339    0.2292870   -0.9768556   -0.0680880    0.0676730    0.2482196   -0.3903610   -0.0480776   -0.3599037   -0.1155686    0.9253291   -0.4988642   -0.2306404   -0.9755526   -0.7489827   -0.7006964   -0.1590963 
   1.5289241   -0.3531797   -0.0318925    1.2222726    1.0408818    0.5805271   -0.0891582    1.5867257    0.2664600    0.0574431    0.5485220    0.0324818   -0.9867142   -0.0898287   -1.4671431    1.4709319    0.5152447   -0.6898329    0.2854049    0.2676720   -0.0886702   -0.1791875    0.2737167   -0.0561745   -0.4701048   -0.4615538   -0.8584912    0.4716912    1.2819572    0.2945488   -3.9954971    0.7165205    0.8100578   -0.2313356    0.6122488   -0.3592753    0.4484572   -0.5276749   -0.1771918   -0.4541198   -0.8927239   -0.4299041   -1.2223107    1.0066089    1.5804326   -0.8052714    0.9228948    0.4105920   -1.2315353    0.3799784   -0.6007241   -2.4512353   -0.7736643   -0.3912239   -0.3338990   -0.7571511   -1.7131304   -1.9854669    0.5032412   -0.7772289   -0.6169401    1.0454912    0.2414118    1.2453087    1.6526097   -0.7211444    0.5163060   -1.5938476    0.3029033   -0.5444642    0.8129359    2.8184404    0.7598235    1.2240868    0.2686902   -0.6588424   -0.5921073   -0.6781349   -1.1289570   -1.0965009    0.3043714    0.7014348    0.0353558   -0.1814433    0.0141082    0.7536066   -0.7320788   -0.3928581   -0.3825695    0.1762502    0.0840098   -1.0439820   -0.3542750   -0.5276014   -0.2853304    0.4364038    1.7007372   -1.0051043    1.2726684    0.7463453    1.1739847   -0.7197524    0.1442045   -0.8892108   -1.4489304    0.9378447   -0.5052662    0.1564419   -0.9263529   -1.2124258    1.7616019    0.5904109   -0.0871131   -0.9083213    1.0208189   -1.0957836    0.5272692    1.0981721   -1.0326516   -0.7296496    0.7207710   -0.4795552   -0.1608889   -0.4578360    0.4264896   -0.3003034   -1.1977844   -0.1595679    0.5442961   -0.1018584    0.9602391   -1.0357046    2.5796645    0.4109278   -0.1203868   -0.9669106    0.1959799    1.6814323    0.2654706    0.7019557    0.6255625   -1.1338395    0.3007858    0.4333293    0.4743543    0.9390141    1.1328008   -0.0248292    0.5884610   -0.8925486    0.7129240   -0.3682325   -1.3981053   -0.5275047    0.0304619    1.0624364   -1.1668355   -0.5164757   -0.8592476    0.9021352   -1.2731240   -0.2370337   -0.6539609   -0.4349918   -0.3294870   -0.4551575   -0.8767111    0.0471890    1.2462909   -1.2232481    0.5250925    0.5553961   -0.0881087   -1.2853701    0.0871039   -0.0466748    0.5555760    0.1628887    0.2955032   -0.1565659    0.4503726    0.3404682   -0.4529083   -0.0315968   -0.7240281    0.0433565   -0.3985613   -0.7121116   -1.0128403   -0.6316987    0.0944588   -0.2147062   -0.3139308   -1.0498539   -0.4719298    0.0960487   -0.5183120   -0.1773558    0.1595185   -0.2959542   -0.3590429    0.2710751   -0.3229559   -1.1639487   -0.8208477    1.0013006    0.7446052    0.0778052    1.3920900   -0.2704272   -0.0585451    0.3528805    0.0194576    0.1824019   -0.0394952    1.3332708    0.1297426    0.3422202   -1.1155991    1.2329294   -0.9500940    0.6740129   -0.2596769   -1.0364944   -1.1115861   -0.3444133    0.0199410   -0.1799285    0.1555199   -0.2449342   -0.6285995   -0.2486206    0.1461272   -0.1614561    0.1371700   -0.0658969    0.1973739   -0.4816866    0.0478246   -0.2216009   -1.3693120   -0.9409409    0.9450454   -0.3543938   -0.2666199    0.4104459   -0.3174260   -0.5942089    0.3752568    0.4127152   -0.4782177    1.5574557   -0.9027260    0.6937040    0.2020723   -0.2187254   -0.1843898   -0.0400655   -0.6453415   -0.0300480   -0.0468419    0.0577974   -0.7306667    0.5877097   -0.6087573   -0.4199431    0.6487986    0.5167195   -0.7693413   -0.0044100   -0.0418051    0.1787061   -0.9302096    0.1997532   -0.4908891    0.5575728   -0.5192247    1.7677175    0.5100248   -0.0464537   -0.7051608   -0.4846526   -0.4920384   -0.1954615    1.0098768    0.0109257    1.0772346   -0.3052436   -0.4079340    0.3148657    0.3956822   -0.1533556    0.3624943   -0.9723737   -0.8440401   -0.1385846   -0.0834884    0.2586063   -0.8058551   -0.3268028    0.0451728   -0.8928885   -0.2556295    0.4221748    0.1752763    0.6658939    0.2534703    0.1312580   -0.9293185    0.6233483   -0.1814130    1.2831266    0.7998500    0.8537244   -0.1057763    0.6200352    0.0792132    0.4950929    0.3289887    0.3096407   -0.4900633   -0.1219824    0.5768694    0.8975957    0.7370821   -0.3200094   -0.1585255   -0.5854307    0.2115674   -0.0394839    0.4772715   -0.8319173   -0.1272702    1.0440252    0.3983458    0.2253239   -0.2298927   -0.7581585    0.7080590    0.1841733    0.3466054    0.2670359   -0.6492794    0.1102109   -0.5871292   -0.2202881    0.0818670   -0.5466857    4.0645436    1.0222608   -1.9292785   -0.1240717   -0.1000874    0.5785324    0.4464414   -0.2596594   -0.5901769    0.3245037   -0.3110481   -0.0555261    0.0079277    0.2721555    0.2406399   -0.3249372    0.0637860    0.8089368   -0.0505114   -0.3788085    0.3186843   -0.4192623    1.7696937    0.8397885    0.8276333    0.6614022    0.0942150    0.9856138    0.7389482   -1.1277558    0.0696147    0.1873703   -0.0860271   -0.8822405   -1.1893301   -0.0710134    0.9399078    0.1970916   -0.4847848   -1.0375105   -0.3530280   -0.9441578   -1.0643467   -1.3027863    1.0598442   -0.2709075   -0.3636133    0.6436544    0.0661072    0.0435360   -1.0968819    0.4569500   -0.6019356   -0.4123511   -0.0980136   -0.5096165    0.7901718    0.5659098   -0.1064494   -0.3569176    0.6210384   -2.1948160   -1.4845392   -0.3512334    0.1498800    0.9643271    0.0603865   -0.0108609    0.4497602   -0.6369402    1.3217924    0.4061465   -1.2127560   -0.7255173    1.1932043   -0.0186030    0.5050734   -0.4466975    0.7430743    0.6064407    0.5772345   -0.1312389    1.1289760   -0.1620073    0.1690553    0.5887947    0.5497360   -0.2101014   -0.8785371   -0.2119094    0.4122354    0.5754116    1.0497567   -0.1475187    0.2949977    1.7032692   -0.2980398   -0.4821427   -0.1205457    0.6712259    0.6368610   -0.4559982   -0.3492989   -0.1530676   -0.7839410   -0.5755916    0.4563078   -0.4875673    0.1451980    0.2004268    0.6545579    0.0979899    1.4933596    0.8189265    0.9480772    0.5119387   -0.9666375    1.0796082   -0.0769727   -0.6176579    0.3276333    0.4264269   -0.3440436   -0.1350586   -0.2272126    0.1071919    0.0759885   -0.3131399    0.5323888    0.6058293   -0.1800102   -0.4113350    0.0063933    0.2190406    1.1150442   -0.9377671   -0.0813091   -0.1419208 