8.44603 1.66793 7.30208 7.96173 5.37764 7.03338 2.29199 5.09937 8.15554 0.920805 3.82008 1.23035 6.62873 0.028181 -0.000632091 9.01943 11.1369 1.18606 10.4627 3.08231 5.06339 5.33815 1.02245 7.05812 3.65044 3.2759 12.1211 2.43794 12.5001 5.66639 4.10028 8.60642 2.14866 0.492434 4.29447 10.8936 5.80238 11.9704 9.40381 6.06143 5.11332 4.34747 10.2425 8.65525 8.32463 5.65925 7.07323 11.8694 5.16068 7.22708 8.19658 1.57947 10.9381 2.6879 3.93284 6.89047 5.07678 11.9606 0.866045 1.45121 0.465558 6.86916 6.7989 7.09451 3.77792 12.3348 11.7355 10.9349 9.65345 1.73219 10.3021 7.47369 7.89953 6.88015 10.3337 0.60064 2.90717 6.45445 9.54992 11.0007 6.32586 11.7795 9.97383 0.421976 4.04474 3.50641 6.00664 12.0667 0.128626 4.69559 9.04709 5.1096 2.4723 10.5298 5.05653 11.9598 2.31797 0.12501 12.2355 11.6038 1.98324 9.04552 1.10247 5.08987 4.34571 8.22208 9.88888 10.67 5.53146 2.53984 9.45751 9.9606 7.74259 0.569589 3.90188 3.4126 3.02909 7.02579 10.4395 4.15127 6.21215 1.41046 4.12333 12.2981 9.70493 5.40258 12.6666 7.47989 10.7387 7.36355 8.3495 6.30681 9.71754 8.48494 3.34932 2.74413 7.23338 11.9777 3.20028 9.81262 10.4262 10.5601 6.56876 5.5142 8.56185 3.66546 9.52864 8.5853 1.87734 1.65181 2.34492 1.07617 8.86686 4.18812 12.2377 2.48883 4.65215 9.91196 6.93256 6.72721 7.59575 2.7383 4.32239 1.06421 8.88314 11.9177 8.09025 12.3626 5.55629 7.42914 1.2742 1.74258 4.26601 9.5896 3.42364 10.2727 2.46275 4.19054 8.36617 11.2351 9.88965 6.61917 3.70711 2.83848 12.2 3.9163 0.919941 2.11479 8.32301 0.452007 0.595139 0.118557 8.79266 7.12892 6.29798 7.0774 10.8112 9.68464 10.8678 11.224 4.92504 9.20821 3.88049 11.3177 10.7637 11.6446 1.04359 8.53163 10.2647 2.66627 11.7729 5.59615 10.5258 6.61313 6.6014 7.23802 8.28152 3.77936 1.32237 8.54371 5.52536 9.06519 11.5417 8.46066 9.55081 1.77624 3.42705 12.024 11.0454 1.474 4.28569 12.4928 3.61487 4.8655 10.1894 5.79572 1.16394 3.23693 10.5812 5.96942 3.89217 1.27821 5.82358 11.4711 2.5348 6.92483 5.28597 2.91356 7.40353 5.41942 3.13921 4.54251 5.94716 9.26171 2.87385 6.0275 9.68625 5.63316 7.63038 2.00591 3.2662 5.31455 11.6685 7.4012 7.82811 3.56049 7.79501 4.13546 7.87896 6.56064 6.00213 0.524974 10.8984 8.57249 9.56657 7.06316 8.00657 12.5887 1.56091 9.84431 10.3546 9.59498 7.92108 8.56576 4.37388 7.20085 5.63812 2.9148 11.0752 10.0429 7.27975 4.58302 10.8059 10.0462 11.6017 0.201229 9.29705 5.41544 3.57893 0.273919 6.06658 6.8515 9.79787 2.20828 12.3785 7.64497 10.292 1.78709 1.29732 9.80392 3.78411 3.39982 11.2416 7.09071 7.20897 6.02303 8.93715 7.84306 10.8742 8.79462 2.02733 4.18641 5.93451 11.8683 0.769392 10.3342 1.27915 7.35081 4.66266 5.46472 9.25505 -0.0573339 7.27496 2.19552 6.33184 5.5765 0.56643 4.82381 6.94704 4.47824 5.11546 3.17426 9.64191 2.26005 8.87363 2.96886 3.43296 1.50274 7.27216 8.24104 11.4282 5.17318 12.0719 0.914228 1.83618 0.423285 10.3911 0.629602 9.76619 3.86125 1.34392 6.04807 11.69 2.69828 3.63813 4.44528 8.19844 11.2966 5.12487 0.710343 11.3393 5.88118 0.168665 2.44059 2.0452 2.54218 12.4574 1.54874 8.73999 8.1404 9.32143 12.0039 4.1787 0.136694 9.61851 9.49636 12.4456 10.6061 8.67559 4.97734 1.03879 5.19917 2.5155 2.73017 8.10311 1.0163 6.92971 3.4598 10.3315 5.97381 12.0176 3.72268 0.790039 10.4783 8.95085 12.3476 6.34187 4.90769 9.59665 6.64088 11.5725 5.88563 6.9731 4.48525 12.2507 10.6036 11.3713 7.8355 11.0458 12.1264 3.46105 7.81725 3.59897 8.49872 7.70225 1.83208 1.05382 1.20613 5.53002 0.131969 12.3068 3.06548 4.78972 1.5825 2.77423 10.0271 4.90429 6.08114 2.6812 10.9432 11.7409 4.50529 5.21749 5.90279 1.27929 6.70562 8.40841 6.74523 1.08115 8.5021 1.69645 8.40596 10.7125 3.92544 5.90504 8.51928 9.02631 2.40132 5.83969 3.11773 9.55989 8.39955 7.4926 1.76316 0.0521739 6.74068 1.11718 5.94148 7.06079 5.77895 11.9935 2.77025 3.41533 7.24904 11.9949 2.87355 10.4924 3.65533 1.52535 12.1107 4.3273 3.46918 10.3012 0.889772 8.72282 6.4143
10.1358 3.16859 1.22747 3.97055 10.785 1.81159 6.57132 2.96274 1.24292 1.40638 10.065 6.03219 6.23881 11.2976 6.91506 4.15316 1.49705 5.42188 5.31322 5.73982 8.36775 11.2504 0.729642 2.50424 3.17817 12.1671 7.783 11.1135 7.22882 10.2225 1.19038 0.311698 4.93284 11.1363 10.4106 6.44288 4.58841 4.82792 2.0216 8.72094 0.473389 6.3429 0.719807 6.03265 -0.0197353 3.22222 7.59701 3.65781 10.7781 8.23875 3.56688 6.28078 7.02731 0.714837 4.32372 10.5846 4.78358 11.0402 4.29684 10.491 7.84767 8.02676 3.18075 10.9933 2.75204 5.32386 2.76327 6.66035 9.36788 6.16303 4.16737 5.16617 8.48453 8.67249 7.99341 5.59594 7.68811 6.04252 6.06544 2.13961 7.92227 8.93529 11.2885 4.0348 6.63115 10.0121 9.99604 1.09353 9.34664 8.97085 8.61738 4.21933 8.88258 3.73124 1.63295 0.199973 3.28334 3.61073 7.52361 6.97701 1.07603 11.1564 11.9175 5.17239 3.48156 4.73182 12.2908 10.1466 11.4344 5.29386 7.10184 8.55379 5.08635 3.01651 2.37881 4.05114 4.52684 1.07268 9.24826 1.47284 6.70592 0.321572 3.4767 0.24264 11.692 11.5659 1.4936 12.6169 1.48118 3.74085 8.93488 11.5541 9.52398 12.5301 12.2296 8.8823 6.12579 5.98133 7.98931 6.6919 10.2652 10.7084 9.28685 0.661827 1.17773 3.57365 1.6378 10.4012 1.14984 9.43112 0.548944 2.07343 7.44544 7.29594 10.5613 0.847664 1.77665 3.63707 10.6548 1.98076 6.84794 6.38507 12.2368 12.5691 1.04292 12.2213 1.23563 8.75903 4.67168 2.98696 1.10733 8.22046 0.757517 4.22253 1.70504 12.5491 12.1693 2.04607 7.92862 8.03111 11.9932 9.16726 2.33593 0.0699279 9.69038 7.41182 8.32022 3.75138 1.7359 8.8618 1.00835 10.7213 11.0827 12.4575 10.9755 7.91576 4.71469 4.73842 7.34637 6.58007 11.908 9.00669 9.41633 3.90492 2.50273 11.1431 4.81647 3.5073 -0.012684 1.44425 5.0109 11.5933 3.43637 4.89298 3.88949 8.40005 4.1955 6.62951 2.39627 5.18229 7.49287 7.78294 7.17647 10.215 8.06036 6.97369 2.70373 12.0566 12.0122 6.93029 3.92802 5.82824 1.37872 9.57829 2.91374 4.15526 2.58999 4.95405 0.563465 11.7306 2.21406 5.87624 4.67451 4.99059 11.7354 8.35514 11.7958 3.42351 7.32621 10.5726 8.25385 11.704 12.4579 8.11005 9.51755 2.0532 1.94018 1.20184 7.4145 9.67526 11.5958 9.92969 11.7253 5.77217 9.25961 6.83177 4.07267 5.718 5.18325 0.698156 7.58808 6.30654 2.10126 2.43707 10.4955 7.56704 12.3939 10.2707 12.6219 4.38299 6.10235 9.9297 1.84133 7.99965 2.63119 10.2908 4.86904 2.49312 7.76816 12.3001 12.4719 7.78269 11.3594 2.57653 7.11512 8.22458 9.47414 11.7406 5.90437 11.5811 7.14738 5.53594 9.01333 9.95993 1.25346 1.09849 3.09829 5.57828 7.60507 12.4465 1.65295 5.65293 10.4618 11.8368 3.17903 2.994 9.74326 0.397713 2.62877 1.4402 4.43372 0.997268 7.77818 0.290287 9.4879 7.67845 9.18181 12.5202 3.23824 10.5601 3.03484 2.46078 11.2874 9.57149 10.7248 0.43387 0.37424 5.41317 1.74402 11.4829 5.45464 9.05167 5.55634 10.8873 1.02829 1.9924 3.02628 8.69631 11.3701 9.31565 5.05482 1.89307 10.8394 2.11345 5.80017 4.17577 3.29178 5.03351 7.89948 12.2319 9.52204 0.403185 8.11447 7.0711 8.72371 1.5755 6.50755 7.79608 4.2384 3.9688 9.35938 3.54199 9.77922 8.23925 1.82523 4.78921 10.2327 10.5347 6.9519 0.471265 7.22289 7.55764 2.81273 8.73187 11.0217 4.702 5.12596 7.74129 7.45274 6.80294 12.02 2.79912 1.50771 1.60493 5.60775 10.3397 0.433123 6.07403 6.66988 4.13627 1.76045 7.38441 9.73466 9.83725 7.48464 1.7676 0.539631 6.8762 2.99463 -0.0923812 9.5519 4.44694 12.1488 5.98331 0.686594 3.68801 3.73526 5.46683 1.55951 4.26276 10.0368 3.05485 9.43896 7.35006 11.4826 5.36832 6.08979 5.68588 6.16204 0.955532 10.6594 10.1096 9.39203 5.45442 10.3468 0.537691 0.511793 3.2592 0.122382 11.4564 5.56613 5.48444 9.69286 6.0749 4.11528 3.58522 5.4789 9.22559 4.92637 7.35024 10.6446 2.1904 3.61655 10.3456 6.8832 6.47586 1.78914 4.3648 0.0263404 6.68908 2.91057 6.37106 1.83538 3.38823 6.23537 6.53064 1.28954 1.91379 2.50462 8.29045 10.3364 10.182 3.67022 12.1047 6.73144 11.8686 10.2197 3.92566 7.48596 5.47486 9.57225 2.11125 6.23763 1.68783 8.46056 5.35615
7.50917 8.95422 3.34447 3.3633 4.61216 11.8611 9.15207 5.51479 3.21314 2.56997 1.34134 11.2618 5.61644 9.96535 0.951465 0.150187 11.8442 3.42891 2.37654 7.2233 0.742624 1.2244 0.172313 8.78758 9.04007 9.64489 9.28525 2.06271 5.80171 6.72596 0.215789 2.98821 10.4621 9.67673 9.59196 5.85296 1.88445 2.97999 4.66184 11.2312 1.95336 4.37593 6.51299 0.191026 2.66674 8.08129 4.40596 0.33994 6.3297 0.0763321 6.19075 11.6228 10.691 1.00522 8.09843 3.05039 5.44176 1.59037 10.4301 6.08267 10.8789 5.15611 10.5837 12.3531 8.24618 8.31965 5.55981 6.16273 7.86378 10.4336 -0.0638927 7.60029 0.528883 1.69567 1.57566 7.73654 1.2794 9.32791 10.5425 2.97917 0.85915 7.0625 6.48577 5.2233 2.95998 0.446197 5.86144 3.27772 8.05668 7.96764 5.1228 2.40645 3.996 1.93724 9.98747 10.9758 4.15218 5.75966 4.651 2.94376 9.97756 3.28074 6.3696 10.9368 10.8207 9.25768 7.00197 7.97353 3.59542 12.1581 0.829761 5.07895 9.25066 5.87137 11.648 5.42873 5.93778 2.95451 4.45093 2.17105 7.18685 7.25938 10.9265 9.09216 9.26479 0.225602 4.36832 7.7341 10.9848 11.922 8.33777 11.5865 9.54945 3.44997 8.48325 1.57945 7.39802 3.98241 5.49536 2.13346 0.700973 8.61994 0.08227 -0.0116041 6.46113 3.92244 10.2182 5.81298 6.68124 1.72375 9.18699 12.1161 4.51651 -0.0118594 2.78415 6.98229 4.86056 0.630632 8.78972 10.8297 8.28506 2.84302 1.98798 5.00767 0.757727 3.70771 6.06677 8.08155 6.48267 10.7154 2.50511 3.15954 0.912491 9.38647 11.4328 2.62333 2.41844 12.0198 12.3023 8.32388 8.98393 9.13216 2.30161 0.556065 8.36986 10.1085 10.4565 5.46819 4.56492 0.670031 1.18012 3.52145 8.00647 7.04472 3.6971 0.897731 1.04621 10.591 4.61782 0.553786 2.10199 9.62966 2.68475 4.46865 6.59663 8.38624 5.17225 8.22308 2.97746 9.88612 7.56147 5.33694 11.153 3.4456 1.89542 4.64128 3.09198 9.52462 6.90059 7.05725 0.698078 0.858341 6.83636 3.14181 12.2845 3.03034 11.4241 4.8814 7.80058 0.0965274 10.7146 10.7962 0.18678 3.81207 8.43168 10.274 4.688 9.69852 5.28257 8.97986 11.0268 6.72 7.04882 2.39938 5.80649 3.47148 11.016 6.80917 11.1789 8.2686 7.52083 9.42284 3.31053 8.70535 9.64543 7.54252 10.4874 -0.0125405 4.23366 3.44225 0.93326 10.2468 8.5187 4.59887 0.748041 7.48642 0.202618 9.52828 11.2351 8.70133 0.341793 10.1689 12.0237 2.76741 11.588 11.7292 6.22967 2.62281 5.47094 0.447188 11.5289 5.17652 6.2996 2.21532 2.52004 2.0398 12.0143 7.20288 5.19271 11.5748 9.57958 4.49442 0.579604 6.8929 6.72242 0.454485 7.95998 10.5493 8.38631 8.86377 10.9131 3.72789 7.14768 0.226496 9.64728 7.21269 4.32623 1.26948 11.9983 -0.0155644 3.4456 4.9911 7.77941 6.46067 6.94893 9.39748 1.3644 8.47781 5.47365 6.54199 3.66791 2.27575 3.17435 11.0822 6.39014 8.42165 1.88754 8.28569 0.208497 3.10765 4.07758 6.12773 1.29619 4.44207 9.43557 4.09077 3.07667 8.62543 12.2333 10.8684 3.1409 10.0156 8.27481 7.77766 12.2608 0.571873 2.32776 8.55052 5.70429 7.22618 9.67883 2.42026 8.2944 2.40488 9.68265 1.55763 0.0866542 1.49007 7.23548 7.86659 5.29357 11.501 -0.0647824 1.82679 3.20621 2.79793 1.41866 10.9089 9.63294 6.13974 4.64778 8.65482 0.202056 4.8148 10.5199 11.3611 1.37444 6.24417 5.89861 2.02864 9.6243 5.75607 7.05929 12.2571 0.655922 6.3785 5.35088 5.59456 9.25595 11.4855 12.208 -0.00970003 1.47882 8.31692 3.54889 7.17469 7.29434 9.97737 9.56766 9.77422 9.51863 11.074 2.90951 4.44196 5.63009 10.0754 6.61694 2.17111 2.17997 1.10709 0.704618 10.9239 8.80823 0.816976 7.17352 5.541 1.46665 3.11797 6.32662 11.3001 0.0414099 7.57892 3.05451 0.724881 4.74108 7.2887 3.13406 7.06448 5.52119 5.13098 8.06196 7.31726 4.00944 10.4744 1.7313 12.2648 2.53813 12.5082 4.78857 4.34099 10.8958 1.63929 11.0818 2.57064 10.2758 11.2529 6.06243 7.86315 4.69381 4.58057 1.66167 1.9909 6.23606 5.45049 5.68307 5.95656 8.2301 0.638233 5.75647 1.69976 9.22458 4.70292 4.43359 4.06707 3.59172 5.76514 0.40518 4.41385 9.14344 3.957 1.79902 8.79714 8.93206 7.33859 5.95287 10.7993 6.29955 11.4576 10.2218 2.75883 9.87145 11.2888 0.682066 9.91077 4.36656 11.9829
8.29854 1.02552 1.63206 6.39341 3.52736 12.401 7.9836 1.5401 5.09692 11.3015 10.8978 6.05575 8.58397 5.83369 10.5663 0.612001 2.10831 7.22609 2.52505 9.36099 1.89465 3.73301 9.67285 7.61642 8.5833 3.02395 10.0177 9.86944 1.68044 7.51221 3.0698 0.660896 12.0915 11.225 6.88226 5.54018 3.45263 4.94889 0.253645 3.63461 5.51132 9.18845 1.12161 2.62577 12.3388 11.0659 7.70542 9.00094 5.60009 0.234618 7.04846 1.31667 7.07016 3.685 0.970849 10.0751 8.61928 6.83166 5.5166 7.82222 10.8483 3.14295 1.96757 10.7234 3.64474 4.74157 2.96863 4.56952 5.69719 8.34728 11.3724 7.24535 5.72828 12.3748 12.4749 6.69005 0.970189 9.67675 11.047 7.75293 12.1726 10.4211 10.7601 0.823802 10.8467 11.1568 9.76011 0.732011 10.6992 12.1533 4.54488 6.28794 2.84286 7.60619 7.2802 3.89265 0.129649 10.512 3.26962 2.96401 1.83007 4.70824 10.7558 0.816556 11.7158 1.31652 7.02894 7.41576 3.49269 1.98075 9.43357 11.4663 4.52105 8.90764 8.64571 8.42955 6.4887 1.30657 4.0608 2.80762 0.8043 5.96152 11.2919 8.47788 7.6883 1.11736 5.9287 9.27605 1.78527 12.4378 1.1074 4.36222 2.74996 8.10788 10.8417 5.88856 10.0237 5.0638 2.66189 12.2767 2.32877 7.61476 4.40281 2.87975 6.81881 8.70791 9.11063 7.99983 10.6991 11.8142 5.71757 6.85194 11.7386 2.60084 12.4197 7.04021 5.81662 4.33159 4.93331 11.4738 6.06101 2.04815 3.0072 7.43385 3.09204 0.244992 3.21377 1.36456 7.63417 4.55975 9.09558 6.74025 5.28507 11.9171 10.5499 4.72441 1.2023 9.57975 10.2007 6.15972 11.4792 0.253145 10.1332 6.49793 1.36189 6.16011 1.37602 10.8407 1.37317 2.25033 1.60946 0.875895 12.1667 4.74208 10.5666 7.89367 9.58176 7.84408 1.39962 0.692214 5.69965 12.0196 10.9777 7.83585 4.18394 3.25724 4.81081 0.688408 7.19994 5.62287 5.14701 5.98616 8.44665 10.4034 7.84572 7.06761 0.9315 8.80145 2.89644 1.92824 10.7368 7.11312 10.0198 1.77748 0.958063 7.66087 7.15018 7.57624 1.90126 12.0329 11.553 9.36754 3.88814 3.27508 11.0607 10.5129 2.5152 2.67069 8.24306 7.29671 4.36302 9.85393 5.93088 9.01606 0.443878 6.38112 0.189813 10.6321 10.2608 6.66772 7.82604 0.394884 6.8796 7.16575 10.1851 12.11 2.1031 11.7118 11.9114 4.33661 3.19589 1.59708 2.45913 3.65128 3.66804 0.760037 3.35379 4.06225 11.6424 7.88326 6.72115 12.1243 8.44992 2.13834 6.62142 9.55365 1.70781 5.21603 4.46353 11.6243 1.18703 7.66581 4.71907 0.795455 11.1525 7.33081 5.61174 4.63973 11.7228 9.43471 0.00822913 6.98005 8.56834 5.30172 12.116 6.44221 0.243943 6.32156 10.6887 0.449511 2.19322 6.71354 12.2186 8.85185 11.9336 0.993656 1.75958 4.36449 11.9586 12.2179 9.99091 4.91885 9.69389 11.273 11.3173 10.2882 9.17432 9.59241 5.1409 1.4764 8.62563 2.90478 10.6295 3.17962 5.85883 10.3919 3.30292 10.0891 3.23238 8.64965 9.35247 7.62003 4.91836 9.54258 11.6622 8.51522 4.71543 3.48947 0.0993179 4.20799 9.19174 1.32809 4.42776 8.18396 11.2466 5.72074 7.61061 3.13592 9.16063 6.9418 11.8808 8.29257 0.81406 3.4512 0.239011 3.38262 8.29568 4.6347 6.2334 0.917136 12.1418 2.64997 5.51868 3.95824 12.1636 0.791044 2.87457 4.41253 1.92835 7.06493 3.0962 4.29443 7.54826 3.33451 1.37696 10.9474 5.10551 5.79865 7.34684 9.70005 10.5154 9.06887 9.49072 0.286659 2.12333 1.22371 8.35612 6.21785 4.25397 6.6868 0.927651 6.05286 2.20929 2.53098 5.58155 7.20593 11.1051 1.93592 3.45192 6.68195 11.3879 6.01119 0.793543 12.3093 3.2248 9.43079 2.69237 5.90206 11.6803 6.94489 3.78241 7.91083 8.70924 2.57113 2.16885 3.02356 6.25607 4.05545 0.739245 6.01314 12.0424 7.4326 10.6371 5.20827 8.88727 8.35801 8.13491 6.20075 2.28933 6.54878 1.07695 0.994986 10.323 7.4727 1.33184 1.99229 9.31564 12.1239 5.61151 4.68192 2.804 9.44374 1.6484 10.7972 7.16035 12.3086 11.1161 4.4133 5.71752 4.85713 10.0006 6.20824 9.33556 0.233445 8.49172 8.28185 2.55038 9.5353 9.56145 11.3138 12.418 5.09547 4.24558 5.45286 10.8921 8.03423 1.72941 8.68104 2.38851 2.04991 10.9579 11.7827 11.9692 0.232028 9.31369 4.33011 11.0946 12.2397 6.07427 8.0507 6.85423 2.57505 10.8378 3.47227 3.6493 8.94032
3.28758 5.75937 7.66645 6.44489 0.0693425 7.11299 9.57259 9.7049 11.9877 8.3966 3.7997 2.19108 12.4811 0.993422 9.53164 10.4564 2.71401 7.83364 7.60031 11.4169 0.698622 12.3607 4.60357 1.14293 1.84864 1.72302 1.27099 7.92637 1.93976 9.13252 2.90134 1.62791 10.2248 9.36868 8.42701 8.77652 8.84195 8.9377 4.8188 2.40734 9.63702 0.632947 7.64463 2.33031 12.0196 7.65172 7.07147 1.95217 11.1256 11.8337 3.8218 6.8858 12.166 3.94373 0.986459 7.67926 2.86591 0.278514 0.675118 6.00186 7.23337 10.7834 9.48761 4.86045 1.04833 12.2638 0.339533 5.42396 7.87587 12.0136 11.8295 0.247716 2.40359 4.94347 2.79595 1.41153 10.3972 5.46294 6.15706 7.30286 9.01852 5.1725 9.53675 1.72571 4.45481 9.3942 10.4708 2.59496 3.32703 5.86432 3.28503 7.97675 4.84138 12.2818 3.57777 10.7977 5.20697 4.53742 1.20631 10.4916 5.59197 5.85942 11.0793 2.91465 4.12236 1.26432 6.29813 10.6709 11.2009 8.36906 6.61437 8.06659 5.43188 7.9313 6.04381 9.23908 4.32696 11.5117 10.3549 9.53045 5.32965 2.81023 3.8191 5.55177 3.03307 6.9121 3.7909 0.557114 6.06701 4.24143 6.7449 12.2918 3.94955 12.1792 2.9674 5.26889 4.31819 9.93097 8.10634 5.73277 11.5985 9.84798 11.9329 7.35711 10.4597 9.23812 2.32154 10.8189 7.05841 11.8704 10.7204 1.76321 1.2849 8.20089 2.66085 5.43448 1.98633 11.0559 8.49588 4.46432 10.0518 7.35185 11.226 2.58927 9.68325 6.49921 3.57405 5.30479 4.18374 2.43665 5.22297 10.036 10.3063 3.93466 5.26278 7.75256 10.8755 8.85915 3.52643 8.51008 5.39736 10.8513 3.2966 12.3007 9.51773 5.83087 4.57148 5.85765 9.01805 3.65665 11.9045 7.42722 8.69399 5.59023 2.37737 5.74033 10.6686 10.3758 12.2809 0.327407 11.151 10.6216 8.52032 0.521248 -0.00726329 2.05187 4.73792 6.09323 10.7776 7.76557 4.22365 4.1291 3.04655 11.3245 8.6309 8.48696 4.43035 12.5761 1.15876 8.83461 4.92778 6.32351 11.4888 3.36659 2.36683 1.75535 8.89612 4.22992 11.4422 4.35452 7.24039 7.20764 5.75606 9.944 10.0535 2.5787 6.02574 2.42857 9.66712 6.87366 1.09092 2.4583 10.1781 3.4505 10.5213 1.86659 12.1929 5.28676 9.71455 3.53904 5.62141 1.18949 0.815766 5.7583 2.28502 1.3957 8.20668 1.23551 7.23882 1.94403 7.08556 6.02965 6.12758 1.35424 1.82888 0.28171 9.32607 5.52015 12.4634 5.56483 6.59655 8.59773 2.36353 7.58041 4.26699 0.0729882 10.6328 1.01274 3.21666 6.83139 6.60373 7.53863 8.97924 8.26645 2.94964 9.38212 6.7208 8.15486 11.7856 8.14405 3.10767 8.96093 10.2234 1.15972 4.10788 8.37785 0.727309 4.77664 9.14901 5.71936 2.66982 0.963562 2.71048 6.62207 2.81908 10.4293 6.01719 10.5012 0.537309 3.84387 3.19202 9.83606 6.67432 3.54084 2.61695 5.39938 2.68351 0.38543 5.06391 8.60919 8.49853 2.09802 1.51486 6.23762 9.08834 3.31337 3.73795 11.0816 10.5725 11.4311 0.15923 0.970996 1.17928 11.5996 11.9566 8.64863 2.82673 1.61296 12.1803 11.6096 2.95922 -0.112529 8.12049 11.9023 6.66555 7.59975 8.68886 9.24563 2.60814 6.72165 3.63352 0.928206 4.77895 11.891 10.9073 12.1776 5.79329 11.2161 5.90601 0.752164 5.10785 5.12507 11.6407 4.81943 1.58509 7.55706 7.21169 8.03016 4.88211 1.93312 4.09562 4.38898 4.05011 4.21375 6.81192 10.3049 0.266591 0.474308 0.469939 11.7443 4.43649 4.67461 8.30615 3.55462 11.3441 10.9407 2.05083 7.60825 12.157 2.33632 3.15692 9.96623 11.5305 8.79558 1.85547 10.7439 2.97672 11.9358 4.78207 1.80406 6.38634 8.74352 8.16189 7.27312 0.0289687 12.1897 6.78562 6.78458 7.50745 10.4346 4.69393 8.19241 10.7533 11.3565 9.51383 9.25644 6.74221 3.39103 6.91037 6.36756 9.38284 10.6503 8.8618 0.779371 10.086 9.63438 9.48517 1.09728 8.16062 0.938536 11.6413 6.97112 6.33988 4.01471 8.21533 7.0741 0.157237 8.89881 5.34681 1.11512 3.30362 9.98403 8.27595 10.543 7.82646 1.17939 4.49495 2.76846 7.01658 11.2331 3.47249 10.1878 9.04129 1.70822 4.40642 7.15781 12.3252 1.63593 7.64688 12.5131 7.48624 11.2572 7.00256 0.585581 12.3887 1.61854 3.44873 1.77237 1.01542 10.8488 0.21864 8.98186 2.37694 1.08484 10.1224 7.35373 5.33454 9.7993 5.61403 11.0904 4.43379 0.615997 10.6131 11.2521 4.74115 4.61709
3.1595 5.61252 7.62473 6.7159 -0.0845347 7.23662 9.54256 9.73891 11.9003 8.26049 3.85894 2.26192 0.116778 1.11693 9.47915 10.5256 2.77353 7.90493 7.45008 11.3809 0.615022 12.3651 4.73234 1.2349 1.80869 1.95676 1.42263 7.9196 1.8762 9.18306 2.93796 1.8797 10.3733 9.39184 8.68548 8.55027 8.94603 8.80205 4.89556 2.32595 9.78154 0.605271 7.52624 2.3173 12.1083 7.80064 7.197 1.93476 11.1598 11.8383 3.75735 6.91872 12.1327 3.98174 1.00913 7.78695 2.83146 0.261238 0.752509 5.94749 7.17385 10.6537 9.61588 4.79359 1.12404 12.3429 0.223891 5.31755 7.97218 12.0178 12.0522 0.201597 2.49436 5.07986 2.78017 1.4506 10.2816 5.25084 5.92057 7.14104 9.02704 5.04539 9.4159 1.91363 4.34259 9.33224 10.2684 2.49701 3.19862 5.81538 3.33563 7.95807 4.96632 12.1867 3.5876 10.9375 5.23807 4.59 1.20572 10.318 5.67052 5.94379 10.9606 2.97727 4.18464 1.30525 6.2523 10.6728 11.2783 8.33074 6.5411 8.11033 5.34634 8.01576 6.2005 9.00887 4.39401 11.5428 10.4573 9.60382 5.23272 2.66237 3.73544 5.48398 3.03071 6.8119 3.87054 0.450558 6.05592 4.44813 6.79422 12.3435 3.79758 12.1053 2.98051 5.25912 4.217 10.0336 8.1691 5.70879 11.481 9.96459 11.9837 7.44997 10.5038 9.36516 2.29387 10.8575 7.04595 11.7942 10.6846 1.78149 1.38964 8.20413 2.44567 5.44975 2.00133 11.3282 8.50309 4.43988 9.92674 7.2956 11.2419 2.6183 9.65409 6.42967 3.30537 5.14728 4.08117 2.26924 5.13038 10.1799 10.2433 3.95019 5.37826 7.63879 10.8488 8.97708 3.55997 8.74966 5.32853 10.8703 3.3741 12.4669 9.41244 5.764 4.56646 5.84604 8.96272 3.50055 11.6439 7.27554 8.50791 5.60775 2.58225 5.75188 10.3765 10.5321 12.3152 0.437091 11.0622 10.7199 8.61768 0.368612 12.4772 2.21417 4.90723 5.97531 10.8684 7.99776 4.12186 3.7206 2.67778 11.4159 8.86476 8.3297 4.16226 0.00751838 1.03017 8.67882 4.91297 6.32647 11.3304 3.43299 2.41302 2.03668 9.0419 3.90163 11.2135 4.35352 7.31808 7.14734 5.57901 9.88266 9.98206 2.47793 6.04653 2.75953 9.37047 6.33083 1.13726 2.59092 10.3776 3.35006 10.5099 2.04647 12.4313 5.08645 9.71884 3.69721 5.56221 1.15706 0.801477 5.94798 2.29546 1.40627 8.31979 1.18217 7.33112 1.80286 7.08589 6.08931 6.20295 1.13211 2.08014 0.55485 9.22451 5.69042 12.2155 5.59564 6.60478 8.53728 2.45296 7.78334 4.30738 0.0782737 10.6109 1.09967 3.19016 6.8423 6.55102 7.56663 9.17349 8.14462 2.89132 9.48114 6.82706 8.03637 11.7955 8.2734 2.97662 8.93702 10.2974 0.971371 4.04986 8.35851 0.814039 5.19636 9.02599 5.91314 2.56714 1.17025 2.7517 6.45534 2.76256 10.413 6.02425 10.2952 0.682404 3.75473 3.36601 9.78905 6.52897 3.59902 2.58629 5.63863 2.71626 0.355081 4.89173 8.41693 8.45698 2.12079 1.30798 6.26069 8.96502 3.28139 3.90281 10.9524 10.7819 11.4028 0.119042 1.1361 1.21767 11.5324 12.0746 8.72649 2.99676 2.01857 12.4102 11.3557 3.11575 -0.0433121 8.20588 11.7235 6.72756 7.61269 8.85397 8.97504 2.53947 6.74092 3.71218 0.91237 4.8566 12.0234 10.9313 12.3812 5.88129 11.1246 6.03009 0.752994 4.95077 5.07265 11.6425 4.91846 1.41193 7.48137 7.46088 7.76116 4.93155 2.08708 4.1663 4.37772 3.97916 4.09611 6.693 10.316 0.376761 0.347698 0.40213 11.7682 4.40047 4.55273 8.30781 3.67371 11.3909 11.0632 1.92436 7.61695 12.128 2.25795 3.26284 9.97553 11.5736 8.64408 1.70057 10.9168 3.13963 11.8336 4.6967 1.76284 6.31148 8.67847 8.49574 7.16138 0.0759566 12.0892 6.64985 6.82871 7.66547 10.2798 4.53225 8.10212 10.8803 11.2252 9.60591 9.294 6.58142 3.37454 6.75697 6.33044 9.58939 10.5953 8.85989 0.834111 10.4541 9.62242 9.53394 1.09485 8.31625 0.976809 11.5243 6.83704 6.24546 3.88236 8.16511 7.25411 0.0814474 9.04189 5.46721 0.884233 3.36474 9.94762 8.45256 10.4738 8.08374 0.918813 4.57923 2.86725 6.93761 11.2336 3.34016 10.1769 9.01178 1.60629 4.40735 7.1253 12.3218 1.72371 7.50749 12.464 7.38739 10.9407 6.65814 0.535149 12.3006 1.48121 3.7354 1.77066 1.01124 11.0467 0.150035 8.85152 2.36717 1.1606 10.2731 7.44306 5.17549 9.80127 5.67761 10.9383 4.28727 0.617744 10.6664 11.0086 4.82772 4.59528
10.1268 3.10882 1.40353 3.96065 10.7849 1.90492 6.49955 3.10768 1.18384 1.36394 9.9844 6.08354 6.28082 11.3173 7.00119 4.28123 1.60144 5.39028 5.32957 5.76673 8.21691 11.2831 0.686172 2.47186 3.28869 12.4226 7.71723 11.1817 7.24985 10.2318 1.13751 0.342763 5.00639 11.1606 10.4495 6.35669 4.45071 4.74357 2.056 8.7782 0.511377 6.33283 0.741315 5.88014 12.5995 3.1849 7.62935 3.56707 10.8988 8.38211 3.47885 6.36054 6.84141 0.73758 4.27289 10.7432 4.83072 10.9633 4.24111 10.8001 7.90741 8.06348 3.08852 10.9801 2.89645 5.31998 2.72403 6.69925 9.44798 6.04643 4.1348 5.12059 8.45582 8.7924 8.05176 5.68881 7.73895 5.92909 6.03287 2.16227 8.07136 8.8796 11.2935 4.08479 6.64347 10.0916 10.1256 1.24907 9.41958 8.90853 8.67213 4.29777 8.77586 3.49808 1.4693 0.268473 3.33707 3.56676 7.47999 7.08526 1.02132 11.3214 11.8826 5.28585 3.39908 4.68727 12.3961 10.1749 11.489 5.55064 7.20668 8.56593 5.06876 3.01058 2.20411 3.9527 4.55167 1.16118 9.10692 1.17992 6.65078 0.423323 3.27184 0.209533 11.631 11.4447 1.37346 12.3902 1.56822 4.01247 8.91239 11.5964 9.63282 -0.0465031 12.3541 8.98741 6.21963 5.88525 8.05308 6.80275 10.1998 10.7557 9.18762 0.57734 1.03132 3.42377 1.66883 10.3326 1.156 9.45089 0.557492 2.18342 7.50742 7.26149 10.5413 0.796543 1.66582 3.50127 10.6072 2.13648 6.76027 6.29856 12.1042 12.2621 1.11572 12.2421 1.20753 8.62583 4.49813 2.81344 1.05281 8.0855 0.649128 4.41804 1.66391 12.3843 12.2494 2.19176 7.8121 7.99104 12.1023 9.01697 2.19771 0.0549927 9.55931 7.38653 8.37848 3.55135 1.97616 8.93526 1.13699 10.8665 11.0932 12.5483 11.014 7.90148 4.67582 4.7714 7.55427 6.76808 11.9919 8.91089 9.4849 3.91473 2.47351 11.1101 4.93703 3.4999 12.5583 1.58729 5.08817 11.5398 3.3256 4.94833 3.77666 8.42638 4.2666 6.61328 2.4484 5.43097 7.52132 7.72268 7.23985 10.2943 8.2526 6.96376 2.65567 12.0777 11.9611 6.99288 3.8666 5.80136 1.46963 9.75428 2.75196 4.13193 2.66283 4.869 0.589484 11.8484 2.19834 5.75336 4.65664 4.8668 11.6025 8.31983 11.7998 3.60552 7.085 10.5227 8.0348 11.7871 12.4353 8.39646 9.75 1.84521 1.87756 1.47626 7.33485 9.72942 11.687 10.0215 11.8405 5.59788 9.25607 6.85038 4.10195 5.74144 5.04457 0.68523 7.59388 6.28647 2.11033 2.38615 10.4928 7.64574 12.4206 10.0026 12.3377 4.44485 6.23381 9.84442 1.93566 7.89622 2.40159 10.3066 4.95413 2.32276 7.87991 12.3417 12.5953 7.6465 11.4983 2.64325 7.13242 8.34519 9.60271 11.7136 5.82951 11.6613 7.1577 5.56651 8.99245 9.92769 1.13444 1.15157 3.14898 5.44933 7.68341 12.3673 1.53254 5.6199 10.4237 11.9074 3.14011 3.08829 9.63314 0.461924 2.63537 1.53947 4.59747 0.952581 7.63582 0.0923352 9.57682 7.78831 9.26891 -0.128951 3.25467 10.6598 2.64825 2.2778 11.2857 9.62118 10.6662 0.374159 0.363121 5.41288 1.7199 11.5335 5.73476 9.02584 5.49362 10.7669 0.86713 2.05455 3.003 8.7634 11.2576 9.29043 5.03472 1.77441 10.7327 2.02946 5.70561 4.18752 3.15613 4.93831 7.77114 12.548 9.52317 0.391638 8.04944 7.09211 8.74194 1.64802 6.51807 7.75234 4.2654 3.98716 9.39757 3.44341 9.71652 8.26513 1.84398 4.83127 10.2874 10.6502 6.93534 0.513575 7.3166 7.71577 2.82623 8.46996 10.7979 4.75036 4.86895 7.89611 7.57924 6.59957 11.9583 2.62553 1.41724 1.67245 5.48868 10.4299 0.495526 6.14184 6.46962 4.07569 1.68697 7.37343 9.88482 9.66163 7.5615 1.81012 0.664491 6.99212 3.04235 0.255394 9.55733 4.62127 12.2333 5.95209 0.475749 3.71684 3.76132 5.30327 1.58572 3.94219 10.1629 3.12451 9.44862 7.56384 11.068 5.75189 5.85535 5.58349 6.26281 0.844298 10.8408 9.95109 9.37269 5.3848 10.2927 0.55051 0.476667 3.22897 0.112175 11.4249 5.64324 5.37984 9.78245 5.97602 4.04137 3.63339 5.40806 9.40797 4.92272 7.26204 10.5856 2.28533 3.4184 10.5315 6.9294 6.43665 1.60271 4.23754 12.6029 6.26795 2.67158 6.13255 1.74693 3.49433 6.44458 6.77628 1.46311 1.88882 2.74169 8.30927 10.3134 10.0745 3.43803 12.2301 6.687 11.9557 10.3435 3.9351 7.38609 5.40242 9.58334 2.14928 6.02393 1.66321 8.39346 5.32708