-132858.2057687
-132859.0733007
-132859.7569952
-132858.8973709
-132857.7930489
-132859.1223330
-132859.0116260
-132859.7366878
-132860.5827537
-132858.6535523
-132858.4463053
-132857.8421137
-132859.8621650
-132859.8859421
-132859.3628796
-132859.5460537
-132860.1773060
-132858.4830032
-132859.6267966
-132860.9672366
-132859.0810329
-132860.8574280
-132858.8080141
-132859.7578599
-132857.2256775
-132861.6003736
-132859.5019792
-132857.8551259
-132860.1269743
-132860.0140893
-132859.7524891
-132860.2143811
-132859.7598336
-132860.3833480
-132860.3131256
-132859.3294353
-132860.4581077
-132860.6148384
-132859.0242717
-132861.0932987
-132859.5209630
-132860.2907523
-132862.2691152
-132860.2442242
-132861.9400392
-132859.7920282
-132858.7330629
-132860.7412752
-132858.8373358
-132859.8352446
-132859.4014356
-132860.1730264
-132858.9280147
-132860.4195653
-132860.2939468
-132860.6389002
-132859.7250210
-132860.1297269
-132857.3000142
-132859.7105304
-132859.2587098
-132857.6967639
-132859.2738740
-132858.4292177
-132859.7390544
-132859.4077651
-132859.9513220
-132860.2680027
-132858.3431181
-132860.3369176
-132858.6969912
-132857.9478779
-132859.7750158
-132859.9612150
-132858.2951300
-132861.2290487
-132860.1333635
-132859.3628618
-132860.0809083
-132857.5374235
-132860.3201724
-132860.2412411
-132859.2173486
-132860.5625217
-132860.7558281
-132859.4802695
-132860.2596851
-132857.1457281
-132860.8516094
-132860.7883209
-132858.3243036
-132858.5381730
-132858.6281245
-132860.5025774
-132858.4625708
-132859.5463670
-132857.7951057
-132860.7639091
-132860.5166071
-132859.2209367
