  -0.9226176   -1.9408084    1.0585447    2.1671807   -0.8910872   -1.4492518   -0.1863331    0.3632302   -0.2295909    0.7396049   -0.2421682    0.9306637    0.5573542    0.4163667   -0.3857212   -0.4536307   -1.7187138   -0.5961342    0.8762709    1.7174020   -0.2070227   -0.5815560   -0.7340611   -0.1116641    0.7009489   -0.1634328    0.4247742    1.0729069    0.3377516   -0.4062293   -0.6568302    0.0605896    0.4156262    2.0719383    0.2657149    0.3941657   -0.8080230    1.2921676   -0.8608386   -0.1395297   -0.7216555   -1.1687063    0.1609784    0.9010245   -1.2086998   -1.1433701   -1.2439949    0.3206753    0.1737583   -0.7797455    0.2059475    0.4055799   -0.2322926    1.5745900   -1.0806799    0.3862817    0.9461813   -0.4555344   -0.1946475    1.0323179    1.7430725   -1.4909731    0.6194047   -0.1887556    0.4960509    0.3613271   -1.3714085    0.6118981    0.0299744    0.4383872    0.1898622   -1.2523885    0.9406287   -1.1033817   -0.1256961    0.3252313    0.8713714    1.3883531   -0.0880547    0.6735342    0.3589215   -0.2736267    0.3688460   -0.1245813    0.6107735   -1.4643056    0.2319763    0.6104840   -0.7790035    1.0828494   -0.0870884    0.4067857    1.2565398   -1.3853100   -0.6513312   -0.4419230   -0.2406065    0.1986980   -0.4466312    0.2839085   -1.5697492   -2.6319819   -0.5295837   -0.1666538    0.0333935    1.5714086   -0.8828097    0.0441561   -1.1353493   -0.4809024   -1.9361233   -1.2736731    0.3761757   -0.4374621    0.3203159   -0.0964935    0.6627453   -0.7348082    0.2680047   -1.0056797    0.3996992   -0.6402528   -0.8320479   -1.5875870    1.1239341   -1.8680250   -0.0219660   -0.3558799    0.3474971   -0.0036145    0.9282540    0.6319018   -1.5832747   -0.0164000    1.8707535    0.5490670   -0.5133462    0.4013602   -0.5015155   -0.7926257    0.8436158   -2.1762737   -1.0960196   -1.0443538    0.6534204    0.9903215   -0.4172666   -0.9876851    0.3491693    0.0730919    0.6631341    0.7019382    0.7360660    0.7620121    1.0056036    0.0193650    0.8923763    0.6186823   -0.8004953    1.4877772   -0.0500270    0.6437752   -0.4838654    0.0631875    0.4783483   -0.2646844   -0.3889639   -0.3994529   -0.1731202    0.2407824   -0.3707604   -0.1263806   -0.0557559    0.2886970    0.0708756    0.9623006   -0.0369894    0.0828256    0.5058797   -0.1995475   -0.6068434   -0.4442678   -0.3966180   -0.3522737   -0.0746268    0.4919325   -1.3622590   -0.0713893    0.0344960    0.5535793   -0.2898848   -0.5960344   -0.1421394   -1.4230636    0.8725922    1.6668300   -1.0748543   -0.0776139    0.9070481    0.7027131    0.5365596    1.0011397    0.8841899    0.3519466    1.1021831   -0.5232624    0.1689956    0.6736895   -0.3717333    0.1768179   -1.0750723    1.0610222    0.2803820   -0.4744834    0.0356119   -0.3368337   -0.7035122    0.4617858   -0.9274559    0.0444575   -0.5870469   -0.1255558    0.9787443   -0.5897213    0.5033286   -0.9084596    0.3603197    0.3001394   -0.6577121    0.1696466    0.0779045    0.1437823    0.8157826   -1.3789943    0.5996530   -0.1755211   -0.2753709   -0.9468837    0.5916255    0.8590497    0.1137544   -0.5884481    0.5236013   -0.0544128   -0.2812829    0.4132130   -0.0033759    0.2202737    1.0784615   -0.5809744    0.7729835   -0.0417439   -0.8490105   -0.3470384   -0.4874731    0.2868067    0.2275576   -1.3925368   -0.0564028   -0.4330346    0.3577429   -0.3152966   -0.1618454    1.0867852   -0.2034160   -0.1268542   -0.1452268    0.1959320    0.6321029    0.2127162    0.0531221   -0.0128380    0.1753097   -0.2355358   -0.9049840    0.0344379   -0.0894976    0.0063326   -0.1953422    0.2013596   -0.0051900    0.6469053   -0.2883298    0.0837378   -0.1719297    0.9407974   -0.3889711   -0.2704437    0.0754305   -0.2712782    0.6147068    0.5278817    0.7528337   -0.3875857    0.0436856   -0.7121949    0.4800622    0.9478258    0.2534096   -0.0267554    0.3317815   -0.1301200    0.6998160    0.2278261   -1.9867453   -0.4523909    0.8431268   -0.8676603   -0.2537747    0.2288674    0.4566631    0.7098999    0.0808700    1.4581252    0.9808773   -0.4935836   -0.9418582    1.2277424    0.7481152   -0.0132360   -1.3855558   -0.3368980    0.9715735    0.5079880   -0.7472457   -0.5204039   -1.2736515    0.9665398    0.3046291    1.4726062   -0.0489142    0.9568252   -0.1671917   -0.6822312   -0.9101190   -0.9565768    1.5412701   -0.2355445    0.3631582    0.3649276   -0.3790564   -0.1316925    0.1172619   -0.1752223   -0.0059567   -0.7047330    0.2089737   -0.4707846    0.3394742    2.0840220    0.2401154    0.4897645   -0.1854296   -0.0619708    0.1403602    0.2802884   -0.1050353    0.5130855    0.1842551   -0.4133544   -0.3872566    1.0052236   -0.2423615   -0.3112471    0.1776386    0.2231410    0.2657792    0.2005626    0.0087433   -0.2045468   -0.3678505    0.5352175    0.7304456    0.2455178    0.0131126    0.2965059    0.0804493   -0.2602626   -0.5243510    0.3965512    0.3883442    0.1933573    0.5638134   -0.1258525    0.6965811   -0.5914085    0.2463560    1.0555067    0.0201112   -0.1731798   -0.0053500   -0.5973205    1.0444119    0.3095790   -1.0012086   -1.0321148   -0.2201282   -0.6045232    0.8729372   -1.0192207    0.2382678   -0.2973153   -0.2162690    0.0663067    0.0717775   -0.0955356    0.1275165    0.3918389   -0.3455909    1.3594745   -0.3334475   -0.5283126    0.3885263    0.1696589   -0.8225785    0.3982389   -0.4075144   -1.0165421    1.4906301    0.3917247    0.1634626    0.2577095   -0.3715652   -0.1576113   -0.0097820   -0.2036284   -0.3916399    0.0856913   -0.2494624    0.2170038    0.5202666   -1.5014030   -0.9788374   -1.0078883    0.0540498   -0.1340517   -0.2030478   -0.4769059   -0.2767640    0.2482201    0.3245047    1.2153394    0.4192067   -0.8035863   -0.2010208    0.4811277   -0.1287547    0.7611435    0.2307108   -0.2117464   -0.3776587   -0.4858405    0.3959285   -0.4474081    0.3128360   -0.2475428   -0.1180286   -0.2770262   -0.6554922    0.6163256    0.0077118   -0.1263374   -0.3202382    1.1713735   -0.0725139    0.9716723    0.1672791   -0.4644715   -0.4584336   -0.7692657   -0.4841677   -1.5300436    0.3371175   -0.0575583   -0.6927414   -0.3364095   -0.1776541   -0.7106095   -0.7781802    0.0962899   -0.4640720   -0.4692271    0.3507830    0.5606463    0.4095389    1.3899632 
   1.3106302    0.4733933   -0.9167478   -1.2101108    1.5641560    1.4339671    0.6251789   -0.6441676   -0.3154889    0.0129635    1.7695065   -0.5004151   -0.2712587   -0.0194144   -0.1728641   -0.2244924   -0.2627437   -0.7276061    0.7272991    0.7027594   -0.0171801    1.0199046   -0.0054271    0.3737964    0.1189753    0.6237561   -0.0812562   -0.9267499    0.6681241    0.2857417    0.1896591   -0.2027095    0.5155188    0.0185145   -0.8085912   -1.4629362   -1.1020437   -0.1263687    2.3346455   -0.6691685    0.9442015    0.4817005    0.2078280    0.4016553    0.6241962   -0.5320710   -0.3515132   -1.0734638    0.4017386    1.0187939    0.4670473    0.6893527   -0.3912326   -0.5035261    0.4067724    1.7836959    0.5603480    0.4051901   -0.5133513    1.0116138    0.6730513    0.1374528   -0.4322571   -0.5855068   -0.5812362    0.0502594   -1.1824540    0.2823181    0.1093136   -0.8805508   -0.6353065    1.0995415   -1.0938696    0.0075760   -0.3756147    0.9709863    0.2520706   -0.0577995   -0.0996560   -0.4423117   -0.1483810    0.3839029   -0.8513132    0.2599777   -0.4828051    0.9979433    2.1209477    0.9364348   -0.1504492   -0.6037945   -0.5070531   -0.7696760   -0.0278682   -0.4225584    0.1673023    0.9943386   -1.1434709   -0.7830139   -1.4007731    0.4607326   -0.6720100   -1.5321463    0.3142285    1.0068300   -0.3344133   -0.0793582   -1.2499604   -1.2495680   -0.4503048   -0.1776566    1.0260994   -0.9724107    1.1181409    0.3883812   -0.1432799   -0.4408138    0.2477825    0.4908891   -0.2690177    0.6471038   -2.1573314    0.1872844   -0.4540920   -0.5451055   -0.4586372   -0.4369695   -0.1921479    0.2782583    1.3189482    1.0870480    1.1024432   -0.9202738    1.5854725   -0.0628841    0.7716064   -1.4202446    1.8806378   -0.8775596   -0.3281603    1.4190778   -0.9051172   -0.1999712   -0.2028905   -0.5258165   -0.0031388   -0.7309701    1.2209763    0.5219938   -0.6717211   -0.4834710    0.8160834    0.4099770    0.4183377    0.7732457   -1.2731754   -1.5881819   -0.9644207   -0.0719791   -0.5895506    1.1999606    1.0822467    0.1541670   -0.3121238   -0.0095419   -0.7156324   -0.9451199   -0.3643471   -0.0942423   -0.4742767   -0.8628415   -0.8071468    1.3597388    0.5134840    0.5879175   -0.1854517   -0.7144117   -0.8576721    0.8001055   -1.8987801   -1.3718266   -0.5988272    0.0177242   -0.5563628   -0.4949808    0.3624527    0.3592722   -1.0262763   -1.2721444    0.1722311   -0.1363662    0.1723396    0.6397710   -0.0175714    0.1090508   -0.1622603    1.8655105    0.1222524   -0.7747622    0.3251192    0.5064669    0.1322170   -0.1646998    0.0732163    0.2901028   -1.1841025   -0.2859603    0.9261802    0.5947802    0.0152446   -0.4168233    0.3097713   -0.3452268    0.0737002    1.1749772    0.2049093   -0.2694348    0.5459750   -0.0291049    0.3627885   -0.2722090   -0.6729675    0.6536647    0.8443003   -0.3973919    0.5142311   -0.1450483   -0.7364476    0.3078908   -0.4288160   -1.3540474   -0.7024283   -0.8344735   -0.3387836    1.8564386   -0.7908352   -0.2546180    0.7894329    0.4688856    0.8943314    2.1448312    0.4338368   -0.3485142   -0.0695643   -0.2092020   -0.4397684   -1.1929564   -0.2800426    1.1578397   -1.1787511    0.2619492   -0.1206835   -0.6233843   -1.2521597   -0.6320793    0.7559895    0.0505273    0.3441973    0.2840859   -0.3677430    1.0580706    0.6991213   -0.6409778    0.7664966   -0.5768874   -0.4658635   -0.1980136   -0.3631032    0.4104280    0.4157460   -0.4643054   -0.1185212    0.8022848    0.6793094    0.0551024   -0.4527843    0.0024924    0.4429339   -0.8387277    0.0409145    0.2114584    0.1383403   -0.6191281    0.1055706    0.6196367    0.2051412    2.0788484   -0.3875883   -0.1549167   -1.7723872    0.5853839    0.4815282   -1.0472550    0.1436944   -0.3513090    0.8629840   -0.6562240    0.1218482    0.0103276   -0.1882737   -0.2568826   -0.4009750    0.1897264    0.7175860   -1.0052488   -0.3800766   -0.7185270    0.2903132    0.7082554    0.4816913    0.1819180   -0.7833543    0.0097203   -0.0185032    0.1468512   -0.2137395    0.5423297   -0.4546247   -0.0655760    0.7547379    0.3036870    0.3343233   -0.0584983   -1.2689454   -1.1853526    0.7037154   -0.5654337    1.1942440    1.8027642    0.2343623    0.8374735   -0.3182323    0.4087994   -0.2055526    0.1876582    0.4998299   -0.1381202   -0.5093939   -0.0038459   -0.2307664    0.1275684    1.0093986   -1.0392692    0.3451507   -0.4576185   -1.2384372   -0.3166048    0.3736277    1.1594889   -0.9074229   -0.2533659    0.0010804   -0.5634632    0.2388674    0.4323029   -0.2288982    0.3244060   -1.5127812   -0.6193163   -0.1185788    0.2432676    0.5341377   -0.0821247    0.6386304   -0.3784352   -0.0867686   -0.0853422   -0.1883046   -0.0475469    0.7148025   -0.4457328   -1.6727018   -2.3700337    0.3449954   -0.3253676    0.9043983   -0.7152252   -0.6450860    0.5584552    0.6065250    0.9952261    0.0432244    0.9925219    1.1560132    0.7867898   -0.1801300   -0.8939678    0.3922806    0.9522589    0.4901096   -0.6358999   -0.0268171    0.7392938   -0.1700770    0.9046826   -0.7253553    0.1849966   -0.4775312   -0.2901280    0.2866426    0.1108372   -0.0927145   -0.3903224    0.5813971   -0.3974912    0.0400455    0.3159646    0.7065359    0.4230809    0.0819293    0.4286766   -0.0423985    0.4265262    0.4069364    0.6717185   -0.6749226    1.0044698   -0.4895269    0.8484891   -0.4818789    0.2365658    0.4872659    0.0069476    0.0380307    0.4297030   -0.4070999   -0.0126349   -1.4711823   -0.1109843    0.7423040   -0.6468137    1.3819799    1.1548773   -0.9917166   -0.4344020   -0.1657246   -0.6379871    0.2525200   -1.0614604   -0.2754337   -0.8348355    0.5947448   -0.9190957   -0.0584885   -0.7524836    0.5463720    0.3057192   -0.1755535    0.3966458   -1.2913526   -0.0429056    0.1343777   -0.0012665    0.0758759    1.3544022   -0.3334943    0.3878079   -0.4707430    0.4655879   -1.0518974   -0.6991743    0.7170409   -1.2712738   -0.1562522    0.3102654    0.0569135    0.7583333    0.8495829   -0.5058344    0.7267679    0.0204747    0.6070670    0.1130720   -0.2303951    0.9714403    0.1543177   -0.4732940    0.2512977   -0.0891870   -0.5467741    0.0213253   -0.0549964   -0.1107344   -0.8205803    0.0959258   -1.2170497   -0.0823221 
   0.3593334    1.4576269   -0.3152272   -0.7407650   -0.9859295   -0.2064741    0.9475630   -0.1767609   -0.4062278    0.5533973   -0.2089804   -0.4803913    0.8134424    1.3747479   -0.6123892    0.6542458   -0.7923568    0.5797352    0.7743678    0.0911816    0.2259363    0.8297308    0.0024842    1.8737020   -0.0154215   -1.2253395   -0.0285557   -0.5737306   -1.3274406   -0.1584865   -0.4989927   -1.2088962   -0.5818430   -1.5067926   -1.0152648    1.3270621    0.3359960    1.3542294    1.3970913    1.0511703    0.4143607    0.0588228   -0.1262423   -1.5949388    0.0586361   -1.2176642    0.8771950   -1.2233139   -0.1049566    0.2187172   -0.9940810   -0.5603033    1.2224999   -0.3222056   -1.5249785    0.1843703    0.7922822   -1.0965498   -0.8582212    0.4312426   -1.2131956   -0.9071766   -0.5193461   -0.4540632    0.4228670   -0.4953592   -1.2959980    0.7112122    0.8089322   -1.0384156    1.0163051   -0.2152991    1.4140184   -0.9561598    0.4441763   -0.3754676    0.0112964   -0.2336897   -0.4303134   -0.2993064   -1.0773770   -0.8216005   -0.2623971   -0.6067986    0.3695124    0.8933744   -0.4085346    0.3361842    0.6772664    0.0222822    1.9333532    0.0448884    0.5920775    0.8512582    0.7554398    1.0196881   -1.1769014   -0.8100418   -0.8962175   -0.4410750   -0.5676222   -0.2524547   -0.1427847   -1.3825697    0.4997841    0.2233117    0.5021758    0.8339819    0.7105679   -0.3199698    0.0123907   -0.1814217    1.1591618   -1.1329211   -0.1304378   -0.6990462   -0.0569191    1.1507558    0.9837133   -0.0733932   -0.3633855   -1.6359541    0.4237771   -1.5049676    1.5684307    1.1057821    0.6006449    0.3142758    0.3481023    0.2007333   -1.4974343    0.9031009    1.0290814    0.1020744    0.3935111   -0.3459837    0.8013063   -0.0304825    0.1694903   -0.5134207    0.3817529   -1.7079213   -0.1804823    1.4019409   -0.1501772   -1.0246447    1.1382798   -1.3040034   -1.1826216   -0.6848116   -1.4475472   -0.3062597    0.2828672    0.5786023   -0.0826847   -1.3655829    0.3262978    1.3047192    0.4367648    0.4680212   -0.6433674   -0.4247228   -0.2056092    0.2842685    0.1648916    0.4137005    0.0652778   -0.9172363    0.6172723    0.3674453    0.2905713   -1.1932783    0.0601284    0.1971759   -0.0655642   -0.0658136   -0.2991346   -0.4032093   -0.2284493    0.2482684   -0.9604118   -0.2966005    0.6109504   -0.0065723    1.0343964   -0.6746871   -0.3344744   -0.0616931   -0.2024056    0.1164427    0.5253558    0.4683760    0.5728693    0.1534553   -0.1372075   -0.6769461   -0.5387086   -0.2452803   -0.0502101    0.8301258   -0.6884955   -0.3483970   -0.2398959    0.0079391    0.6375285   -0.4728220   -0.2887242   -0.7516325    0.7494435   -0.1000813   -0.6187805    0.5375068   -0.6462167   -0.3749884   -1.1181856   -0.3378112    1.2684836   -0.3673779   -0.0097116    1.2256413   -0.8343712   -1.1417395    0.2108722    0.1482699   -0.1355589   -0.0843050    0.5262577    0.3874341    0.2752012   -0.6562209    0.8603707    0.3053145    0.5157147    0.3023428   -0.6767779    1.0829846   -0.8177762    0.4011807    0.4722584    0.4636591   -0.2454860    0.6085588    0.6539558    1.2105957   -0.6151850   -1.2106744   -0.3464630    1.1054427    0.1953798    0.6111572    0.0476050    0.1869527   -0.1241175    0.3083947    0.4562893    0.9401845    0.4000618   -0.0430650   -1.2059009    1.3271326    0.3751750    1.2789490   -1.3083733   -0.5193703   -1.6003916    0.2760209   -0.6189836    0.8238754    0.9202656   -0.6065312   -0.5464625   -0.4639599    0.3617554   -0.9216483   -1.4356723   -1.0229540    0.5610252    0.2292381   -0.6376786   -0.4995620    0.1715204   -0.4642633   -0.6520027    1.0968819    0.9159225   -0.2277289    0.2537212    0.8236764   -0.4202259   -0.2007508    0.3868664    0.3271956    0.0949848   -0.0245376    0.9919686    0.1740915    0.0729659    1.6041588   -0.5057964   -0.4645626   -0.9546155    1.2646131    0.1794744   -0.1835347   -1.1628467    0.7585226    0.8937914   -0.2339006    0.1254833    0.2717256   -0.0473063    0.0193800   -0.4000237   -0.0370918   -0.4696832    1.0276946   -0.1464234   -1.2115090    0.1367390   -0.0105616   -0.7907375   -0.0751955    0.2506724    0.1946218   -0.1477511   -0.2000232    0.3053433    0.0000463   -0.0962046   -0.2176064   -0.1282637   -0.1443829    0.8379954    1.0289847   -0.6899013    2.0044993    0.3548366    0.5333812   -0.2431113    1.4912832   -0.0666389   -0.2255481   -0.1180703   -0.6446262    0.3647574    0.7085660   -0.7622553    2.4927365   -1.0295689   -0.7127723   -0.2420222    0.4798555   -0.4524408    0.0869403   -0.1963151    0.1673737    0.5409136    0.0141195    1.0924370   -0.0736580   -0.2092504    0.0438445    0.4893146   -0.5966551   -0.7694575   -0.6895707   -0.1135425    1.4915629   -1.5586944    0.2878110    0.6017675   -1.0292948    0.1586238   -0.3430290    0.1262669   -0.3143802   -0.3288324   -0.2582633    0.1197106    0.1309844    0.3072742   -0.7492743   -0.6291729   -0.5504534    0.2492531   -0.2270311    0.6582114   -0.0179905    0.1922615   -0.3923999    0.0420808    0.3765742   -0.5524352   -0.6018780   -0.4138552   -1.2685772    0.1768375    0.0038916    0.5931224    1.2987537    0.3664050   -1.7043676   -1.0396461   -0.2571181   -0.0158339   -0.1146795    0.2283783    0.7512376   -1.2323241    0.4583199    0.9044764    0.6016451    0.2833074   -0.6520716    0.8094891   -0.6193744    0.2926595    0.0893798    0.6727906    0.0655488   -1.0775637    0.0966103    0.2202459   -0.2383331   -0.5261328   -0.7807400    0.0127599    0.1667536    0.2342142   -0.2396377   -0.5082271    0.3111576   -0.6528378   -0.2843158   -0.3970279   -0.2137662    0.9014374   -0.1733870    1.4738547   -0.3810670   -0.5359498   -0.6232460    0.9737852   -0.0331225    0.8250057    1.3363824    0.4686177   -0.4807163    0.6406415    0.3142414    0.0301025   -0.8115105   -0.6116724    1.2064614   -0.0493549    1.8035880   -0.2359518    0.0474225    0.1092231   -0.0133713   -1.1159745   -1.0548403   -0.2649240    0.4136969   -0.5112137    0.1749652    0.0158740   -0.2440014    0.5889032   -0.0194633    1.2366873    0.6138285   -0.3002772   -0.9118540   -0.0452216   -0.2540745   -0.0800596    0.8439485    0.5986174    0.2346385    0.6360799   -0.0914434   -0.5563937    0.2087469   -0.2011344    1.2115044 
   0.9376180   -0.1455230    0.1533149    2.0679515    0.3197544    0.4413619    0.2491323    1.2862957   -0.1851478   -0.7439429    1.1680388    2.7101059   -0.2360901    1.0800546   -0.7341958    0.5488428    0.2077643   -0.9921213   -0.9115352   -0.2184385    0.0333858   -0.1155999   -0.0598964    0.6378807    1.2185296   -0.1580833   -0.1019443    0.5840526    0.3618367    0.7552526   -0.9450351   -0.3284169   -0.7165297   -0.0849195    0.2348796    0.6046857   -0.3870823    0.1610170   -0.7966695   -0.1297523   -1.8529121   -0.2703712   -1.6297901    0.7350119    0.0184585    0.2213962    0.5654008   -1.2518707   -2.1821163   -1.6388065    1.0802047   -1.2688832   -1.0163318    0.7221394   -0.6463525   -0.0390684    1.2718924   -1.5166800    0.1132901    0.6614983    0.8850255    0.0763078   -1.8822468    0.4828935   -0.4022230    0.1196664   -1.1847978    2.0810493   -0.2132484   -0.3149937   -0.3378457    0.8243068    0.2861891    1.0790894    1.0136949   -1.0731471   -0.7958802   -0.2830853   -1.0110755    0.9297411   -0.8263025    1.0570139    0.0370836   -0.0472168    0.8019655   -0.2121300   -0.6646845    0.1708324   -0.0580447   -1.1432924    0.4484345   -1.0464626    0.9159107    0.6887726    0.6722111    0.3932622    0.1625555    0.2461616   -1.6841232    1.4891533   -0.1665546    1.6846451    1.6298112    0.8167545   -0.2766184    0.3270085   -0.4172681   -0.0384396   -0.5250786    0.6479250   -0.2323024    1.3468632    1.9978617    1.1274863    1.1043207   -1.1110518    0.3157126   -0.9737878    0.7639239   -0.4466260   -0.9674695    0.1735531    0.5198526   -0.2009081   -0.0243643    0.1887288    0.6440416    0.5777256    1.1458666   -0.0650397   -0.4795613   -0.1487065   -0.7968680    1.7353581    0.6443614    0.3872818    0.3072819   -0.2387862   -0.0387692   -0.2534682    0.5048970   -0.0858497   -0.2291265   -0.9111495   -0.1630970   -1.0537008   -0.8707353   -0.1727787   -0.4058077   -0.2089331   -0.7025738   -0.1901239   -0.7695120    1.1271783    1.0449302   -0.1748140   -1.3744527    0.4993691   -0.4675106    0.8209300   -0.5821222   -0.3810191    0.0190653    0.3643604   -0.3238815    0.1308959    0.0077195    0.6256942    0.6142841    0.7030458    0.7738926    0.7289981   -0.9574407   -0.1025464   -0.5040300    0.7050724   -0.3135246   -0.9664653    0.8154442   -0.1362428   -0.6007827   -0.8703702    0.1906104    2.0153431    2.0627852   -1.5892088    0.0292463   -0.0042392    0.6835404   -0.2028067   -1.2695326    0.7202357   -0.5594430   -0.6290510   -1.4803385   -0.0912989    0.6757258   -0.2667048    0.5236234    0.0100479    0.4062288   -1.1361705    0.1160890   -0.8685160   -0.4017998   -0.7104146    0.1861099   -0.8883659    0.3519317    0.9564025    0.8476941    0.3866046   -0.7782599    0.1811986   -0.1145571    0.0080733   -0.1664769    0.3703079   -0.1494974   -0.0394510    0.0515985    0.0945770   -1.3215214   -0.3041560    0.4435546    0.3053536    0.2707589   -0.2349367   -0.1938479   -0.1728996    0.0407412    1.3301901   -0.7794256    1.1146632    0.1115525    0.1142162   -0.0608143   -0.2210481   -0.3545692   -0.1593236   -0.3910202   -0.0698471   -0.8432075   -1.2520198   -1.2604654   -0.2544344   -0.7033770   -0.7717751   -0.2489384    0.2750675    1.1658261    0.7728734    0.1161764   -0.7651519    0.4545198   -0.1671691   -0.4419605    0.1517430   -0.8044970    0.7703867    1.9138766   -0.9486614   -0.5060957   -0.0450015   -0.7548459   -0.2369807    0.0072891    0.2234135   -0.0198325    0.2143473    1.2547930   -0.6981500   -0.6166141   -0.9099647    0.7826339    1.2121080    0.8656497   -1.0819737   -0.2620896   -1.5085127    0.0759982   -0.7855181    0.4787602   -0.2744968   -0.5104974   -0.3534543    0.4757988   -0.4934659   -0.3169981    0.4261739    0.1772108    1.0998685   -0.4685848    0.0153053    1.3130429   -0.5711019   -0.4855623    0.7072969   -0.2636323    0.0167991    0.6124658    0.3574113   -0.5412781   -0.2555287    0.8587236    0.4168567    0.1682603    0.3111514   -0.0751575    1.1706325   -1.7779089    0.0593539    1.4871041    0.9679380   -0.7336039    0.3742818   -0.0925238    0.1770334    0.4599762   -0.1164325    0.2363308    0.3935841    0.2428614   -0.5336851   -0.1561745   -0.5430615   -1.2127976   -0.1414704    0.2200099   -0.3165472   -1.0505661   -0.7936670   -0.8002207   -0.3763855    0.7579441   -0.0464311   -1.9498864    0.1411526    0.1728497    1.1096099   -0.4957871   -0.1773250    1.1491222   -0.5023974   -0.2939652    0.5163934   -0.0385491   -0.3717930    0.4032849    0.9450048   -0.1704143   -0.1354411    0.1077745   -0.2206614   -0.0800657    1.3107906    0.6506015   -0.5508509    0.1687066   -0.5150745    0.4872351   -0.2307144    0.8252520    0.7597567   -0.4280400    0.9294732    0.4936181    0.4081993   -0.2797737    0.7277963   -0.7574257   -0.3501350    0.0536600   -0.1259965   -0.4173314   -0.4125867    0.5216154   -0.3452150   -0.1659602    0.3723802    0.1527868   -0.5156653   -1.1409764    0.3706262   -0.0328325   -1.0410437   -1.1314201    0.1014753    0.0621127   -0.0375803   -0.9731033   -0.2001101    0.2503484    0.3487497   -0.2882424   -0.0120395   -0.1096051    0.0919278   -0.0061830    0.0223532    0.1068206    0.1073925    0.2004022    0.7623149    0.3051608   -0.1333426    0.1812032   -0.2899311   -0.4162006    0.0389990   -0.8930515   -0.2024539   -0.1221053   -0.7412849    0.0558439   -0.2443470   -0.2548252   -1.7864470   -0.7221162    0.2427940    1.3607827   -0.5406508   -0.2193337    0.4406420    0.3000834    0.8193703   -0.1752753    0.2322314    0.1777492   -0.2366234   -1.0937920   -1.0211449    0.2687113    0.0846922    2.5250682   -0.1539150   -0.6383270    0.6029666    1.1476901    0.7087866    0.9344581   -0.6887695   -0.0335868    0.7605090   -0.9470092    0.4273242    0.7042044    0.1743224   -0.3805502   -0.2085731   -0.8568138   -0.7780753    0.3836052   -0.1128473   -0.9191019   -0.2164098    0.3414277   -0.2313886   -0.6865445    0.3850090    0.3331945   -0.0159259    0.0565581    0.6257240    0.9758251    0.4541002   -0.0897948   -0.6700221    0.6933137    0.0884671   -0.8684594   -0.9845756   -0.1910562   -0.0535114   -0.2823607   -0.4478776    0.4369479   -0.1563262   -0.3138640    0.0042305    0.2115037    0.1740010    0.2141185   -0.0376811   -0.1562738    0.3119840 