 -36055.5543412
 -36056.3904039
 -36064.1154685
 -36056.4634875
 -36057.5286057
 -36059.8890970
 -36064.0088187
 -36065.2017646
 -36054.4482903
 -36066.1537629
 -36064.1370399
 -36058.9706100
 -36077.5766680
 -36054.0032491
 -36059.0336708
 -36063.9359456
 -36067.3582785
 -36066.6057923
 -36067.5607039
 -36056.6838037
 -36052.9429405
 -36054.1481259
 -36061.4321688
 -36053.2771313
 -36060.2231612
 -36061.0861061
 -36054.6849197
 -36072.2768143
 -36054.8561135
 -36060.2282248
 -36062.6038541
 -36060.2234824
 -36053.6876565
 -36054.0739309
 -36054.2804585
 -36053.7558728
 -36060.2286043
 -36068.7422188
 -36075.4366103
 -36063.6939640
-36074.7908423
 -36067.1829750
 -36055.2510787
 -36070.6239339
 -36076.2600610
 -36074.7627004
 -36055.1756825
 -36066.8931226
 -36056.1275594
 -36055.2629178
 -36059.9108154
 -36066.7312746
 -36072.1977880
 -36060.5498703
 -36055.9199335
 -36059.4150716
 -36057.2411756
 -36059.2314686
 -36075.0566675
 -36056.4017220
 -36054.9083140
 -36064.7090570
 -36066.2664933
 -36076.8136127
 -36056.3033369
 -36055.6930156
 -36061.2295083
 -36067.3524308
 -36059.9908832
 -36055.0732155
 -36071.4166261
 -36075.6788783
 -36055.9712663
 -36068.2049440
 -36066.3368144
 -36052.7592443
 -36054.9381690
 -36061.2191312
 -36059.3841611
 -36074.0473766
 -36063.1985846
 -36063.4447910
 -36067.7547728
 -36062.2352984
 -36056.4844127
 -36072.5161041
 -36057.5971280
 -36053.0874412
 -36075.0516838
 -36055.9147582
 -36068.5105231
 -36058.9066623
 -36054.9470594
 -36066.6531602
 -36055.6995751
 -36058.4261170
 -36056.6309866
 -36066.6108841
 -36057.2206147
 -36076.5511741
 -36063.0030247
 -36063.1983785
 -36055.5310858
 -36061.4249043
 -36056.2186594
 -36064.5496760
 -36068.0391466
 -36056.0067867
 -36055.5027465
 -36061.2341065
 -36058.9909397
 -36076.2473573
 -36056.2147009
 -36066.4077532
 -36058.5509628
 -36066.8485153
 -36057.2889514
 -36068.2074249
 -36077.1029284
 -36067.9391841
 -36056.7990343
 -36055.6827731
 -36060.8004109
 -36063.7892395
 -36075.3072800
 -36061.9849259
 -36071.3971645
 -36066.4281292
 -36055.1372982
 -36075.6185163
 -36062.9094286
 -36056.2587825
 -36064.6162964
 -36075.6108281
 -36069.3376262
 -36066.7696636
 -36056.6391475
 -36071.6206322
 -36061.0939215
 -36073.0449073
 -36071.8657892
-36074.9815866
 -36074.2138150
 -36066.5571834
 -36060.6272134
 -36054.7114459
 -36055.9816768
 -36061.3124820
 -36067.6704908
 -36054.4635743
 -36055.2795254
 -36056.8458136
 -36067.8864445
 -36075.7866945
 -36057.0705897
 -36055.5614728
 -36071.7746776
 -36057.9930359
 -36055.3090238
 -36067.3970021
 -36064.6861708
 -36056.9486595
 -36062.5529966
 -36072.8433887
 -36075.5210173
 -36075.1795363
 -36063.3909918
 -36056.3678764
 -36072.4857197
 -36064.0445853
 -36072.4296234
 -36061.5761208
 -36064.7213527
 -36060.9245774
 -36064.9559734
 -36059.7325710
 -36075.3072800
 -36054.2768953
 -36060.9076236
 -36059.3507267
 -36071.3374333
 -36059.8322679
 -36054.3990865
 -36061.8725588
 -36056.3825851
 -36078.5654467
 -36065.8767057
 -36061.7602955
 -36055.7208742
 -36075.3072800
 -36059.0014492
 -36078.0686224
 -36054.0225900
 -36055.9822983
 -36063.0568069
 -36055.7712850
 -36063.0759557
 -36067.8930286
 -36070.8259892
 -36075.0500762
 -36062.3976374
 -36055.7590432
 -36078.1617725
 -36061.0540028
 -36058.6400031
 -36054.5425975
 -36072.6589145
 -36073.5490008
 -36056.0437213
 -36060.5600039
 -36064.0819421
 -36064.6572462
 -36053.0378169
 -36061.5519058
 -36054.6251837
 -36071.0336498
 -36054.7191418
 -36072.7816100
 -36076.6257229
 -36059.4970760
 -36056.3581723
 -36066.6960791
 -36055.6525938
 -36055.3640496
 -36054.8326818
 -36059.2632609
 -36068.8827156
 -36055.7531531
 -36075.6973832
 -36057.3386408
 -36072.0103162
-36076.331398
 -36056.8035802
 -36073.4317519
 -36063.1037916
 -36064.6661471
 -36060.4684823
 -36076.5479843
 -36053.9535686
 -36074.2959702
 -36071.7802659
 -36060.2942047
 -36058.2592047
 -36054.3802820
 -36064.2772880
 -36059.1986982
 -36076.7383744
 -36058.7891903
 -36068.1396132
 -36078.3624493
 -36058.6558833
 -36054.7413237
 -36063.6253841
 -36057.3759796
 -36067.0844466
 -36057.2604288
 -36053.7995700
 -36063.9374700
 -36067.4580797
 -36053.0982656
 -36056.5330441
 -36066.3373681
 -36062.1051523
 -36060.5918688
 -36056.5784965
 -36056.9275456
 -36055.3064314
 -36055.6744538
 -36054.1728627
 -36062.7490000
 -36068.8981651
 -36059.8996799
 -36077.2406639
 -36057.1327410
 -36064.3130780
 -36071.8439361
 -36071.1478267
 -36053.1381480
 -36076.3054685
 -36064.3899379
 -36066.0748113
 -36064.5991474
 -36058.7230622
 -36075.3072800
 -36053.2458712
 -36055.1780003
 -36061.1873897
 -36062.6744499
 -36056.0367683
 -36057.3871332
 -36054.9515411
 -36056.6596253
 -36055.2981373
 -36072.8585378
 -36053.1232565
 -36055.2247781
 -36055.2302906
 -36061.1760227
 -36054.7401119
-36074.9085197
 -36056.8077301
 -36058.7790349
 -36055.4240747
 -36056.6432541
 -36061.6418006
 -36062.2324928
 -36067.1767110
 -36063.4314272
 -36074.2778580
 -36056.2760564
 -36055.8521786
 -36057.3608091
 -36070.6068249
 -36060.1911408
 -36070.7255474
 -36055.5247790
 -36051.9492116
 -36055.4784345
 -36058.1645635
 -36057.9881603
 -36055.2193903
 -36055.1569487
 -36075.3072800
 -36064.5260043
 -36066.3559127
 -36068.3715590
 -36065.0745128
 -36063.1670519
 -36066.8035965
 -36060.1352233
 -36065.6293901
 -36066.8218294
 -36056.3532681
 -36065.5373414
 -36063.8043194
 -36054.6875572
 -36063.7745109
 -36060.5189783
 -36061.4926543
 -36072.2481521
 -36065.4562241
 -36076.8002377
 -36056.5391796
 -36060.3735573
 -36059.7478868
 -36071.5192356
 -36063.1782629
 -36054.2977034
 -36068.0519678
 -36063.6742322
 -36052.6288926
 -36076.5549487
 -36058.6616969
 -36053.3631130
 -36075.9325545
 -36056.2821618
 -36065.8600297
 -36071.6780782
 -36059.4656443
 -36076.2519250
 -36072.3817324
 -36055.7139756
 -36054.0296624
 -36054.4106712
 -36054.7679863
 -36055.2404305
 -36061.2874924
 -36063.4609586
 -36067.3007567
 -36063.2824818
 -36063.4431991
 -36066.5157936
-36075.9255599
 -36054.1181826
 -36076.0482361
 -36066.7938880
 -36055.7879404
 -36071.4267446
 -36061.6601907
 -36072.2421696
 -36075.3072800
 -36076.8196844
 -36066.0762590
 -36076.3209059
 -36072.6003948
-36076.449444
 -36054.5116072
 -36057.0593355
 -36076.9336673
 -36060.6283801
 -36061.8274749
 -36056.0235318
 -36069.4871045
 -36060.4418537
 -36054.5830427
 -36071.8427966
 -36054.3562932
 -36063.8109342
 -36059.7836283
 -36055.2291458
 -36066.9487910
 -36054.6451818
 -36069.9630911
 -36062.1426251
 -36065.3795459
 -36057.9847838
 -36077.0132679
 -36056.1599984
 -36068.6274136
 -36071.8048079
 -36075.9966956
 -36058.9558561
 -36078.6818500
 -36055.8318531
 -36056.5390336
 -36064.5376184
-36076.5447462
 -36072.2520747
 -36075.3072800
 -36062.1113460
 -36076.3218991
 -36055.9697255
 -36057.6292336
 -36075.3072800
 -36070.5510339
 -36071.6304088
 -36069.0593068
 -36059.3251157
 -36076.7637619
 -36072.4168422
 -36072.0896897
 -36059.5668921
 -36067.1286638
 -36072.5369180
 -36057.5968139
 -36065.3254974
 -36054.2603553
 -36056.4774658
 -36059.5564312
 -36063.9239766
 -36060.3621175
 -36052.1527893
 -36058.2770770
 -36076.0247013
 -36075.1010536
 -36061.8274283
 -36054.1754572
 -36062.0066426
 -36056.6345207
 -36055.9198080
 -36055.2112459
 -36072.9063495
 -36076.6237337
 -36053.0202503
 -36061.5868233
 -36062.6538416
 -36063.4680443
 -36066.3029049
 -36065.4912426
 -36064.5739399
 -36063.8012973
 -36056.2817511
 -36060.4427370
 -36067.6375750
 -36063.6563458
 -36053.8104097
 -36075.9364436
 -36077.5479951
 -36062.9154700
 -36056.9224129
 -36067.2726412
 -36053.6835726
 -36068.6920092
 -36075.4233648
-36076.1996788
 -36060.9483980
 -36056.9210160
 -36061.0313924
 -36055.2010855
 -36063.7263212
 -36057.4603642
 -36073.0029093
 -36064.9973140
 -36053.7675771
 -36075.9738906
 -36053.2694664
 -36053.2703530
 -36071.3427344
 -36064.9921029
 -36058.2430538
 -36059.7390236
-36076.2344691
 -36055.6383169
 -36067.2148352
 -36060.3804686
 -36063.5071541
 -36068.0457391
 -36066.1317103
 -36056.3811864
 -36067.2037457
 -36071.1557752
 -36073.2756721
 -36066.4230876
 -36053.2518397
 -36056.1775885
 -36063.0629647
 -36076.5155727
 -36062.3405390
 -36054.6663807
 -36055.4575724
 -36067.8733763
 -36053.9407533
 -36072.9713988
 -36076.5970574
 -36077.5431536
 -36077.3715712
 -36076.4728063
 -36072.5881433
 -36055.3310084
 -36071.7823017
 -36066.1586769
 -36056.2533954
 -36072.4056555
 -36063.7503532
 -36071.8869682
 -36071.5046254
 -36055.3281647
 -36061.8769558
 -36071.1167460
 -36063.8312664
 -36059.0034077
 -36068.5526986
 -36063.4822234
 -36052.5260271
 -36075.6392459
 -36060.1888244
 -36071.8674948
 -36064.9890455
 -36065.7877232
 -36064.1881757
 -36058.5726253
 -36077.0058823
 -36058.9705269
 -36072.0887342
 -36076.8361866
 -36066.2965024
 -36076.1753357
 -36055.7114992
 -36060.4100721
 -36075.2397304
 -36057.2428869
 -36055.0432211
 -36060.6136717
 -36067.3060573
 -36058.7183873
 -36055.8089295
 -36055.5295492
 -36058.6864818
 -36054.9510393
 -36057.7486687
 -36055.7743570
 -36067.4548148
 -36071.8582593
 -36064.1732480
 -36056.3780524
 -36067.2850638
 -36060.3471635
 -36062.5270522
 -36072.6650292
 -36076.0909023
 -36070.5692045
 -36055.9623417
 -36076.4635618
 -36070.2600796
 -36059.0001715
 -36073.3855998
 -36055.2951154
 -36056.0574355
 -36065.5175204
 -36053.5875256
 -36060.6659561
 -36056.0792058
 -36054.9794804
 -36065.2053621
 -36054.7471311
 -36054.0351789
 -36057.9984141
 -36054.4224756
 -36063.1787773
 -36072.3231653
 -36071.2717689
 -36063.2786514
 -36069.0395072
 -36055.9544831
 -36067.3152442
 -36063.8286810
 -36063.0488064
 -36055.8089879
 -36067.0927459
 -36055.9079301
 -36066.7540257
 -36065.9198154
 -36054.7921894
 -36056.4790106
 -36073.1830685
 -36057.4946345
 -36058.2033120
 -36055.1173514
 -36067.6288946
 -36055.2568214
 -36076.9798391
 -36076.5371461
 -36057.7311018
 -36060.2523784
 -36067.9846982
 -36067.0637887
 -36064.8841625
 -36067.2989796
 -36059.9964831
 -36070.2238072
 -36071.2461189
 -36061.2364690
 -36057.7514852
 -36062.0464308
 -36064.6720821
 -36078.1291976
 -36071.9340810
 -36062.5202668
 -36073.9284835
 -36056.0611899
 -36063.1228964
 -36067.4413818
 -36063.2695762
 -36074.9368598
 -36075.7159781
 -36065.3274501
 -36058.2920184
 -36076.6291968
 -36066.0570273
 -36075.5950599
 -36053.1786518
 -36071.1475421
 -36055.1869500
 -36075.5371249
 -36057.8670833
 -36071.2349922
 -36067.0108568
 -36075.3072800
 -36074.8734691
 -36056.3469700
 -36076.1469796
 -36072.3659817
 -36075.9755837
 -36061.6778083
 -36064.9895573
 -36068.8397045
 -36061.6334139
 -36059.5172587
 -36055.9945026
 -36060.8687803
 -36076.1833899
 -36056.0163717
 -36056.0863918
 -36071.8728203
 -36066.3995051
 -36055.1271212
 -36066.8077626
 -36062.5562343
 -36057.0694545
 -36065.9412659
 -36056.2685723
 -36075.5745319
 -36065.1192493
 -36076.5101315
 -36066.6644866
 -36057.1909490
 -36055.5219113
 -36056.6545036
 -36059.2489173
 -36076.6023696
 -36056.7985997
 -36068.3668673
 -36077.0089665
 -36076.7282785
 -36076.0241263
 -36075.8530943
 -36072.5184973
 -36055.2342566
 -36064.5370721
 -36055.7217538
 -36055.1135843
 -36056.4887190
 -36066.0090302
 -36077.2480312
 -36059.1808405
 -36060.6750986
 -36071.0500416
 -36074.7753653
 -36064.7014921
 -36061.3422950
 -36066.3717802
 -36056.9123327
 -36063.1515563
 -36054.0136250
 -36055.8789205
 -36063.6276884
 -36070.9601781
 -36075.8523513
 -36063.9756331
 -36077.4436237
 -36067.2960149
 -36057.7303944
 -36074.7111441
 -36069.8766887
 -36072.2157995
 -36056.7457327
 -36061.7851770
 -36075.3359840
 -36060.7463271
 -36071.4134499
 -36075.5704305
 -36071.6418363
 -36078.6150461
 -36052.6319661
 -36059.9242030
 -36068.8599518
 -36058.7624349
 -36061.3947418
 -36061.1093237
 -36055.6689308
 -36055.0335083
 -36054.1524742
 -36058.3534515
 -36075.4871328
 -36058.7857615
 -36054.3888365
 -36075.2440261
 -36068.5093287
 -36056.5006913
 -36059.3427981
 -36052.0445957
 -36063.1785733
 -36059.9184547
 -36072.3220199
 -36065.6063606
 -36070.4978869
 -36056.8528610
 -36056.6952763
 -36066.5165489
 -36055.4255644
 -36057.3401890
 -36072.1840227
 -36063.8416721
 -36064.2367626
 -36062.9984393
 -36066.1382298
 -36057.5683855
 -36056.3128979
-36074.7727801
 -36067.9807648
 -36054.3339258
 -36058.8987574
 -36064.1374151
 -36061.4860604
 -36056.0533223
 -36063.8628034
 -36062.9072807
 -36056.0041591
 -36069.3554185
 -36056.9749780
 -36063.6517680
 -36076.9564575
 -36077.1868487
 -36054.4282612
 -36063.1309165
 -36076.6515807
 -36071.5495127
 -36055.0553842
 -36075.0784495
 -36061.2032661
 -36062.5505010
 -36055.3290718
 -36060.3797996
 -36055.7844215
 -36070.7505047
 -36057.7990615
 -36062.4430086
 -36061.2017856
 -36054.1597397
 -36057.0752935
 -36061.2016652
 -36063.1856454
 -36060.6064606
 -36076.6071159
 -36056.1586794
 -36053.5234792
 -36059.8632308
 -36056.3632767
 -36062.5684271
 -36076.0710804
 -36054.8255233
 -36057.1207447
 -36065.9100381
 -36066.4122572
 -36070.5528090
 -36058.5404736
 -36076.4501371
 -36068.6175807
 -36062.7167187
 -36075.9790696
 -36060.7119790
 -36072.5480628
 -36060.4658054
 -36054.2365451
 -36060.2088362
 -36063.6812058
 -36067.3760792
 -36074.4685280
 -36075.6163613
 -36055.5609376
 -36061.7190102
 -36071.7643082
 -36063.5038583
 -36056.1694565
 -36075.3322616
 -36077.7388449
 -36059.8827390
 -36056.9664836
 -36063.6179788
 -36071.3737141
 -36077.7362419
 -36054.8051237
 -36055.1942895
 -36075.9906909
 -36063.0396556
 -36060.4170316
 -36057.1952448
 -36054.3430974
 -36057.4579153
 -36064.0967123
 -36072.3837573
 -36071.3914755
 -36058.2347315
 -36055.0379621
 -36068.6216944
 -36060.6729909
 -36060.4531854
 -36058.9811432
 -36054.8281525
 -36052.0603152
 -36064.1312417
 -36054.8795186
 -36067.3279012
 -36064.1118453
 -36056.3163213
 -36067.2307542
 -36065.1484301
 -36077.5445385
 -36057.4672145
 -36062.1796621
 -36075.8004314
 -36066.0969941
 -36056.4303630
 -36056.4986622
 -36076.5148229
 -36072.5322132
 -36072.6693732
 -36075.4898524
 -36057.2766564
 -36072.6688781
 -36065.0120378
-36075.8613559
 -36056.6231258
 -36062.4329719
 -36067.1388565
 -36056.8728549
 -36054.7681543
 -36066.6112757
 -36070.4680223
 -36054.3027694
 -36076.5518167
 -36063.2147164
 -36062.7690409
 -36054.0477912
 -36056.3507387
 -36071.0234312
 -36066.0607318
 -36076.4730133
 -36065.9005444
 -36062.6149814
 -36068.7288639
 -36057.1006217
 -36072.6228813
 -36057.8184332
 -36072.4756186
 -36063.6480699
 -36053.3814977
 -36061.5834007
 -36067.3550658
 -36054.2578599
 -36073.0980601
 -36071.8328850
 -36059.4256942
 -36055.5097253
 -36055.2752440
 -36072.8229667
 -36060.8768258
 -36054.5500528
 -36054.4277214
 -36071.4847878
 -36075.9367819
 -36067.7612198
 -36070.8566101
 -36067.8823062
 -36076.8624046
 -36055.7632339
 -36065.9520020
 -36075.3945457
 -36059.3142962
 -36063.8366786
 -36066.8692320
 -36060.9758758
 -36055.8806245
 -36061.1291947
 -36063.5286342
 -36072.7156179
 -36070.7214059
 -36066.4663926
 -36063.6021316
 -36077.7110252
 -36075.3072800
 -36059.3443636
 -36056.5542606
 -36066.6600375
 -36069.3815973
 -36056.1182660
 -36063.8958049
 -36071.7723194
 -36058.8442486
-36076.2974254
 -36055.8200287
 -36072.4739115
 -36066.3211677
 -36062.6162893
 -36061.0755813
 -36057.1608277
 -36065.0878103
 -36063.1910833
 -36055.4829622
 -36060.2978700
 -36062.9973810
 -36055.6473825
 -36057.0179727
 -36057.8681461
 -36062.6924560
 -36063.6261190
 -36054.3302171
 -36061.4378481
 -36054.7691991
 -36063.5185739
 -36065.0476414
 -36054.4820639
-36076.4339795
 -36056.2006648
 -36070.5266326
 -36055.4286167
 -36062.7097076
 -36057.7448068
 -36066.0358150
 -36053.3519186
 -36052.8832243
 -36067.8199335
 -36066.7969990
 -36058.6611058
 -36072.0002317
 -36063.3597378
 -36057.6803056
-36076.3411606
 -36068.2940564
 -36054.1741923
 -36064.1858953
 -36059.6676407
 -36077.1054417
 -36078.0006727
 -36072.7970629
 -36055.8774726
 -36051.6893010
 -36056.9227585
 -36076.6188725
 -36066.8874729
 -36061.5802714
 -36074.1317198
 -36065.8339056
 -36071.5712139
 -36066.8585983
 -36063.3902455
 -36069.3556334
 -36065.6517441
 -36074.9671773
 -36059.8443467
 -36061.9669447
 -36067.6526548
 -36063.5337317
 -36064.2527210
 -36077.3451514
 -36064.3251405
 -36063.7711977
 -36065.6348484
 -36060.3264975
 -36075.2501110
 -36054.9962119
 -36068.6040446
 -36061.0269591
 -36055.6249434
 -36070.3477359
 -36073.4703408
 -36075.9097974
 -36076.0191055
 -36066.5640013
 -36055.5656054
 -36062.3878350
 -36057.8187400
 -36053.3926910
 -36054.5248076
 -36054.6295503
 -36062.0665001
 -36064.3461998
 -36058.5442980
 -36057.3840436
 -36054.4090314
 -36062.0979578
 -36073.0978241
 -36068.8563393
 -36056.7050090
 -36056.9100571
 -36059.6311742
 -36066.6582697
 -36062.2369907
 -36062.4626612
 -36060.2819045
 -36076.2185583
 -36066.2978885
 -36057.0746321
 -36054.0484356
 -36055.4942002
 -36054.7413640
 -36067.5871289
 -36052.9687224
 -36076.8862572
 -36055.0673449
 -36076.0705007
 -36062.8414909
 -36061.8671961
 -36055.5591584
 -36076.9658539
 -36059.7734553
 -36059.3451245
 -36066.9644788
 -36057.6202535
 -36070.3426824
 -36055.0725826
 -36072.0034602
 -36054.0133659
 -36062.9444593
 -36063.1708250
 -36071.2585047
 -36077.3091195
 -36072.7281212
 -36058.1579743
 -36056.1167483
 -36062.9687037
 -36073.3275179
 -36065.8726451
 -36054.9588333
 -36076.2071260
 -36068.2248365
 -36060.6170928
 -36062.1552200
 -36055.9248903
 -36062.0768930
 -36071.0122129
 -36055.2193697
 -36058.1503661
 -36056.5544271
 -36058.9478016
 -36076.0163822
 -36059.7351847
 -36055.0739761
 -36055.9914731
 -36062.1909809
 -36054.1487653
 -36061.9038247
 -36056.4343944
 -36055.3295558
 -36061.8927366
 -36063.6942997
 -36075.8377606
 -36066.0514863
 -36053.7992082
 -36060.6894019
 -36059.2921812
 -36075.2004868
 -36056.2891831
 -36062.8162446
 -36055.7316356
 -36063.9731779
 -36074.6755418
 -36074.4431758
 -36056.9649293
 -36064.1779603
 -36060.2934782
 -36076.3651436
 -36064.8506113
 -36056.8189471
 -36054.6760952
 -36063.3146031
 -36053.0773480
 -36066.0897405
 -36055.0231597
 -36062.2958771
 -36076.4767708
 -36074.4942129
 -36066.5217511
 -36076.8394510
 -36056.3525867
 -36059.1218733
 -36075.0073735
 -36063.5768939
 -36071.2965329
 -36060.3938443
 -36062.4136515
 -36073.1580525
 -36057.5383107
 -36061.0737985
 -36062.5522710
 -36066.2509348
 -36066.3521140
 -36062.7122587
 -36055.5662366
 -36055.1904836
 -36056.0646074
 -36070.9852057
 -36072.7607564
 -36072.1183309
 -36057.1159444
 -36073.3114971
 -36067.3420322
 -36076.7776287
 -36064.5641050
 -36055.9426473
 -36071.3295507
 -36054.3378907
 -36066.2367771
 -36064.3457487
 -36060.8221847
 -36064.0059662
 -36071.8510650
 -36054.5154401
 -36075.5725407
 -36063.5527770
 -36055.9855838
 -36058.4297994
 -36058.4105155
 -36058.3131426
 -36065.5587849
 -36073.4634249
 -36064.9437456
 -36054.1977424
 -36075.3072800
 -36057.1008937
 -36076.1933997
 -36061.3141582
 -36070.9064944
 -36054.8406978
 -36057.3108551
 -36063.3827494
 -36064.5774870
 -36057.8498675
 -36071.4753333
 -36055.3301438
 -36064.4265171
 -36071.5763482
 -36071.7332927
 -36054.3756699
-36075.0818897
 -36053.3947211
 -36061.1184818
 -36055.8673915
 -36062.1659225
 -36061.3731646
 -36060.2281031
 -36066.7891774
 -36056.6969343
 -36066.4530432
 -36064.7810238
 -36076.2649714
 -36055.9298756
 -36067.3404614
 -36062.7423797
 -36055.0246559
 -36072.5840880
 -36075.3366108
 -36074.8274567
 -36052.8213598
 -36060.2790717
 -36058.9206465
 -36054.9183625
 -36077.1160837
 -36058.1908872
 -36063.8745533
 -36062.0463791
 -36053.2052410
 -36076.3086711
 -36058.6448061
 -36061.6211795
 -36057.9504320
 -36071.9332974
 -36069.0986490
 -36067.2401978
 -36076.9860914
 -36059.4933253
 -36067.6487459
 -36067.8190335
 -36062.5120284
 -36076.0727237
 -36055.6603900
 -36055.2186570
 -36063.4159291
 -36072.6580040
 -36061.6369487
 -36052.6904991
 -36070.3031676
 -36055.7633769
 -36067.6904249
 -36071.2749892
 -36066.5986568
 -36065.4217930
 -36070.6769945
 -36077.0385058
 -36054.9933524
 -36057.1582421
 -36076.3898304
 -36073.6465281
 -36070.4566109
 -36072.5867582
 -36053.2546978
 -36061.1922932
 -36054.2772355
 -36060.6579479
 -36055.9228716
 -36069.9916805
 -36053.4809834
 -36067.6012681
 -36054.4524899
 -36062.1236038
 -36066.3281983
 -36054.0034126
 -36055.3057818
 -36057.5292150
 -36062.8704157
 -36070.9085800
 -36064.0542900
 -36055.0508861
 -36059.8998614
 -36062.8658131
 -36069.5715370
 -36062.4304042
 -36055.6072942
 -36056.2059703
 -36075.8469091
 -36076.3043708
 -36072.7564286
 -36056.0562657
 -36056.2832998
 -36054.6812303
 -36059.7928946
 -36058.5569321
 -36052.5847746
 -36055.1302292
 -36067.9366783
 -36064.0381213
 -36056.4303849
 -36056.6509752
 -36062.5773319
 -36056.4928008
 -36058.8752890
 -36066.6589631
 -36053.1011617
 -36054.8146957
 -36061.7945749
 -36057.2484809
 -36066.8719450
 -36072.8281035
 -36054.8452315
 -36067.1280935
 -36055.4556249
 -36061.3498597
 -36064.5932010
 -36071.5725748
 -36056.5518457
 -36053.7243046
 -36077.9191241
 -36054.0448115
 -36056.4677203
 -36072.7714053
 -36059.9577841
 -36055.2192519
 -36055.8238829
 -36075.1097876
 -36057.0267886
 -36052.1827844
 -36056.2269218
 -36062.9112401
 -36059.2053987
 -36061.2966175
 -36053.7005072
 -36063.7480985
 -36059.0593698
 -36060.1050638
 -36077.3394740
 -36072.1384777
 -36066.1324021
 -36075.3072800
 -36068.1355170
 -36055.8384973
 -36060.4129899
 -36060.2597669
 -36076.2678897
 -36059.5284977
 -36059.1538998
 -36058.7542570
 -36069.0892784
 -36056.9296564
 -36063.0856630
 -36067.5945592
 -36052.4965377
 -36062.2128265
 -36061.0991003
 -36058.9367725
 -36067.7171076
 -36065.9685968
 -36069.5436836
 -36055.0548707
 -36058.6592006
 -36062.1232051
 -36062.9191158
 -36075.5382630
 -36063.4991672
 -36054.2472020
 -36066.2863182
 -36057.1563832
 -36066.2418584
 -36068.6887007
 -36071.4431786
 -36062.8207874
 -36060.4304071
 -36064.9160151
 -36059.9297595
 -36071.7275011
 -36053.7501330
 -36061.1781517
 -36057.2423274
 -36059.7460964
 -36059.7363215
 -36062.9470344
 -36062.6531698
 -36064.8594570
 -36067.7061467
 -36067.6267030
 -36065.3957221
 -36055.3134150
 -36072.2752029
 -36067.4834639
 -36054.1324324
 -36063.3826895
 -36069.2936716
 -36054.1950537
 -36059.0629334
 -36076.0932764
 -36064.7134726
 -36053.4143569
 -36063.3234882
 -36057.6596361
 -36064.8677797
 -36056.6668011
 -36071.9120195
 -36055.2935377
 -36056.3513247
 -36053.5816077
 -36067.0086250
 -36064.6213432
 -36056.8149641
 -36062.7745519
 -36060.0772455
 -36071.9772888
 -36065.8333701
 -36075.8057406
 -36054.1057552
 -36053.3319618
 -36068.4914065
 -36067.2031047
 -36060.2705382
 -36053.7173183
 -36064.0602950
 -36060.5078267
 -36055.5128830
 -36054.7051136
 -36062.8314221
 -36069.4056854
 -36063.7514711
 -36070.5149856
 -36056.7354102
 -36063.7913382
 -36064.1263741
 -36061.0766745
 -36063.5474093
 -36053.8556421
 -36058.1587316
 -36075.1845067
 -36061.0859211
 -36076.9694482
 -36071.5752916
 -36053.5708920
 -36055.0753220
 -36077.1852559
 -36057.4527907
 -36056.5132350
 -36070.7762496
 -36068.3047191
 -36063.8034139
 -36067.1419881
 -36073.2675936
 -36068.9038038
 -36064.5689392
 -36056.9692212
 -36054.4221922
 -36059.0773641
 -36059.0604306
 -36054.9351473
 -36075.1029945
 -36065.2117479
 -36052.7641642
 -36071.9095520
 -36071.2607924
 -36053.6748704
 -36069.0321429
 -36059.9459198
 -36055.4860909
 -36075.6687591
 -36055.2204147
 -36053.8849140
 -36067.8874388
 -36063.7041387
 -36075.3072800
 -36077.3930815
 -36059.2173195
 -36068.1571550
 -36062.1364449
 -36076.5924480
 -36060.1099974
 -36057.6381520
 -36054.6967701
 -36075.5814297
 -36058.9761729
 -36056.1476115
 -36060.1795571
 -36068.6033420
 -36065.2939474
 -36066.5155377
 -36077.5201279
 -36056.1629759
 -36056.3003231
 -36060.7217900
 -36063.7510561
 -36076.4674743
 -36057.1806025
 -36054.8174066
 -36055.1122822
 -36054.6145604
 -36068.4643506
 -36064.8092023
 -36060.2783225
 -36071.0529796
 -36055.9250985
 -36069.0945396
 -36075.7362201
 -36068.6786048
 -36053.8190011
 -36058.8079021
 -36062.7715516
 -36062.2089555
 -36064.2417697
 -36063.4346991
 -36055.6154509
 -36067.5051037
 -36071.5346979
 -36067.9911812
 -36068.2054142
 -36060.2244082
 -36072.5094511
 -36072.5540122
 -36062.6205323
 -36063.2594980
 -36070.6631804
 -36062.2745186
 -36063.7600478
 -36057.5190058
 -36068.2508653
 -36057.6267244
 -36057.3021742
 -36059.7452898
 -36059.4053485
 -36060.4463163
 -36058.1452729
 -36060.6582586
 -36067.5385708
 -36066.6906484
 -36059.7751394
 -36068.0825280
 -36075.8845281
 -36056.7530423
 -36054.8760851
 -36060.4885143
 -36065.3337582
 -36065.8765275
 -36075.7757196
 -36056.3557822
 -36072.7883160
 -36064.4298289
 -36054.2266888
 -36054.6728117
 -36075.6074831
 -36055.1301553
 -36075.4199923
 -36060.6326665
 -36054.9765025
 -36053.1812551
 -36054.0248728
 -36061.6260684
 -36064.1815938
 -36067.8965763
 -36060.2461764
 -36070.6665757
 -36062.6089299
 -36067.5366855
 -36067.7087926
 -36078.4681821
 -36057.2657785
 -36077.6831397
 -36066.4701312
 -36054.7476368
 -36065.4290420
 -36060.8833203
 -36056.1644705
 -36055.5089507
 -36076.7442767
 -36071.4792749
 -36059.4943011
 -36067.1203361
 -36054.1224823
 -36072.3993869
 -36057.0313798
 -36060.7946328
 -36064.6741971
 -36070.7242621
 -36055.1798138
 -36056.0321563
 -36060.2825929
 -36061.0674525
 -36076.7886746
 -36064.5976769
 -36051.5212375
 -36058.7967074
 -36060.3429985
 -36059.8070064
 -36054.2689078
 -36071.1607105
 -36063.9461576
 -36056.1664884
 -36055.9126846
 -36075.9743966
 -36052.2495842
 -36055.2708784
 -36063.6556265
 -36064.5063340
 -36075.7472027
 -36064.4232958
 -36062.2265051
 -36067.4325532
 -36055.5573918
 -36056.4808785
 -36060.5849187
 -36070.9448275
 -36055.4345566
 -36055.2383088
 -36076.9936071
 -36061.9960024
 -36062.1547859
 -36070.0375953
 -36060.0945010
 -36063.4319296
 -36061.4090949
-36075.1419828
 -36059.7377903
 -36052.4844671
 -36067.4705193
 -36060.8297015
 -36071.5675803
 -36070.8072817
 -36067.4736135
 -36061.6409763
 -36064.0013933
 -36065.0063365
 -36061.3794187
 -36075.1360120
 -36061.0050676
 -36076.6954558
 -36070.1390656
 -36054.6926376
 -36056.3351090
 -36061.3858282
 -36062.9286702
 -36058.4500963
 -36053.6004179
 -36063.2635713
 -36069.1335992
 -36051.0313654
 -36075.7148073
 -36057.1984248
 -36063.3994829
 -36055.5515779
 -36066.8849451
 -36060.8290049
 -36075.3824908
 -36071.7789952
 -36054.4205881
 -36075.3072800
 -36060.4071342
 -36064.0497624
 -36056.2836161
 -36063.0432143
 -36070.6210490
 -36063.0405447
 -36060.6297880
 -36055.4228952
 -36076.2599201
 -36058.5084610
 -36064.2404543
 -36065.5543906
 -36075.3072800
 -36058.8660753
 -36063.6971246
 -36071.0993665
 -36054.5764858
 -36078.5367055
 -36076.7479477
 -36076.9849781
 -36075.1304801
 -36061.7660490
 -36070.8937842
 -36059.9499366
 -36068.3703013
 -36056.3358354
 -36057.9427276
 -36063.2124983
 -36066.6098808
 -36064.2941058
 -36066.8431956
 -36054.5976115
 -36065.8629948
 -36054.8558565
 -36054.8362618
 -36063.4177697
 -36053.2495893
 -36076.4266014
 -36066.3260194
 -36066.6907561
 -36054.4558889
 -36066.9499129
 -36055.8890731
 -36054.4257493
 -36064.6013321
 -36066.8354566
 -36071.9795597
 -36065.4868278
 -36077.7135740
 -36067.9114807
 -36063.7475602
 -36064.6215860
 -36072.2884793
 -36055.6652265
 -36064.5574687
 -36061.9929072
 -36063.1869078
 -36055.0036717
 -36077.1727526
 -36052.9459626
 -36055.3174908
 -36055.7985192
 -36063.1940223
 -36063.1380890
 -36054.7369000
 -36071.4328612
 -36067.6877230
 -36067.5892728
 -36056.4652488
 -36059.2688210
 -36070.7382447
 -36064.5436710
 -36057.1012839
 -36076.7942044
-36075.4275719
 -36056.6667513
 -36058.5016720
 -36051.9761757
 -36059.4157267
 -36070.1178142
 -36064.6979755
 -36057.4988525
 -36054.8313149
 -36075.1388904
 -36076.9287577
 -36059.8983513
 -36067.9680611
 -36071.7125893
 -36061.3675535
 -36076.6067744
 -36076.6145780
 -36063.5923066
 -36055.9249783
 -36064.9068137
 -36075.4087508
 -36060.5700278
 -36070.7685495
 -36054.3552498
 -36071.0140684
 -36064.1677456
 -36066.6446148
 -36065.1829509
 -36062.0447370
 -36071.1488113
 -36072.5521694
 -36056.4813493
 -36056.1379120
 -36067.4086959
 -36065.5444567
 -36063.4493298
 -36076.2485646
 -36058.0214965
 -36061.2683835
 -36056.8788940
 -36063.0777210
 -36057.5497147
 -36056.0501130
 -36070.1162633
 -36069.0496700
 -36064.7468357
 -36055.6805854
 -36071.4223816
 -36064.9272402
 -36055.0841982
 -36054.3806477
 -36059.4922217
 -36059.1214382
 -36054.9547547
 -36063.8852642
 -36068.0660033
 -36053.8985143
 -36064.5740253
 -36058.7666504
 -36060.9963918
 -36055.0282654
 -36072.6629103
 -36071.8463835
 -36075.3184146
 -36053.5759587
 -36055.2390817
 -36075.5413133
 -36069.6998774
 -36054.6414639
 -36067.9373557
 -36055.8902730
 -36052.9456921
 -36076.9727045
 -36060.6995117
 -36056.0292498
 -36056.6920130
 -36061.9876144
 -36063.0498558
 -36061.2010256
 -36057.8947868
 -36066.3034417
 -36056.0530703
 -36074.7358913
 -36067.0439858
 -36063.9743352
 -36055.9657060
 -36066.5729487
 -36054.1800271
 -36060.3741470
 -36054.8716610
 -36068.1082681
 -36055.5719341
 -36064.1388299
 -36067.0369128
 -36061.8150790
 -36062.7092295
 -36060.6933625
 -36063.9543319
 -36056.8396844
 -36057.9714454
 -36061.7540908
 -36072.6218616
 -36070.1817392
 -36055.7516648
 -36052.9986348
 -36071.7163955
 -36056.9741721
 -36055.2660731
 -36055.1579303
 -36074.9535353
 -36056.4347244
 -36077.5723764
 -36057.6287240
 -36058.0347205
 -36056.1846854
 -36072.2694130
 -36071.1374177
 -36054.0073859
 -36058.7592613
 -36066.4703527
 -36062.6410792
 -36071.3904692
 -36072.5752463
 -36077.1373591
 -36057.1330853
 -36068.7039030
 -36064.4316724
 -36063.7318508
 -36066.4550674
 -36061.2245624
 -36066.9105969
 -36071.7060911
 -36054.7562081
 -36072.6927969
 -36058.7225815
 -36061.4762324
 -36057.2853943
 -36068.4628747
 -36055.6311050
 -36075.6385682
 -36056.7731716
 -36077.1181507
 -36064.9629468
 -36055.0799808
 -36062.0449847
 -36062.0123744
 -36053.0097883
 -36067.2086623
 -36057.8206718
 -36056.8306458
 -36062.3065204
 -36066.7468269
-36075.3307451
 -36064.3894049
 -36055.2765078
 -36064.6489711
 -36070.3336171
 -36058.2098220
 -36076.2201296
 -36059.3123994
 -36068.7915183
 -36062.0359044
-36075.8974195
 -36056.2921592
 -36063.9941148