6.5140403367 4.2701504127 1.6109627311 7.5607892667 3.7818520610 3.0212579093 1.5820391585 11.5768621324 1.2518044265 1.8170160320 9.9275998315 2.2854504959 7.5782784313 9.7899669711 3.2165597036 13.1292000282 6.1467991293 3.5954042168 2.4696275081 12.7028857311 2.4137110827 12.0483921707 13.6160443674 3.0403633016 10.7421347475 7.0806411254 2.0805879415 12.3307083049 11.9026142218 2.4444331783 5.4625906101 1.4235779424 3.6057781909 6.5175809055 10.2240123434 1.6350525892 7.0967529872 13.2533467628 2.5667170397 10.9544194774 10.8359800946 3.0862212274 0.4176473088 8.5511275146 2.4377360693 5.5010549593 13.1766472953 3.5668142946 4.3786897757 12.1594170226 2.1073085108 4.9524702214 10.4186669412 2.4150745460 12.8053291456 1.2254822003 1.9697592094 3.3548844401 9.4211636197 1.7239022784 8.7550789252 5.1923137690 3.2726338005 7.8831782404 8.0573761272 2.8520435020 4.9560415228 4.6256998370 2.4101967196 10.2467444037 13.3317251354 2.8938732208 9.1147851238 10.6797527531 3.0330796275 8.5821164155 0.3713029357 3.2481800918 0.7437900456 3.4044438072 2.5920021009 5.9823868106 11.0433934399 3.9515846168 8.3176165960 2.1846436795 3.0117125740 1.8073344327 1.8498370110 4.3925404621 -0.0936945396 4.2894534759 3.9054223271 11.9327459764 8.3332762043 2.2163793117 4.4540144367 6.4393405190 2.5352414425 11.1619340585 9.7477753858 1.5130583952 3.7210242697 1.9733800392 3.6970610595 2.1924549289 6.4856510687 3.8095769172 0.8830675182 1.5522546623 2.6336524360 11.1532729368 11.2209156483 4.9453281687 3.5405954258 -0.0583635671 4.1513645684 9.2919487771 6.9384874384 3.1852865730 3.9020604407 3.2151591293 2.3247572781 11.7152679500 9.2092098982 3.8550495480 3.8412753485 7.2623340674 4.0609041665 2.4367570507 0.8931967707 1.9740355087 4.9366546972 8.9203579073 3.7964547981 0.6738508641 7.4249861756 4.0324977996 8.3828732327 0.0852546079 5.0132045824 2.1841090948 8.8896894224 4.2874617335 12.2127474424 3.2509312407 4.4089102705 1.8278678797 12.4435406962 6.1319413462 5.9716641890 4.2176366610 3.9228993778 0.7809097493 13.4737330004 3.4542505227 5.3324680499 4.4028402266 5.8257832052 3.8160012319 3.3074709025 5.0905130124 9.7037681917 7.4420138545 4.8245712524 2.2684875919 11.2979517753 3.6598934315 5.7284535599 -0.5789722326 5.4192164755 12.2344072489 9.6114759029 5.6866030478 12.4155008254 13.6347768255 4.9224107188 0.7312880161 4.2274084662 5.5756651039 3.7571608670 -0.3326513348 6.1252182178 0.7327790610 0.2319885598 5.3543242194 5.4905693844 9.7988739817 5.4155154645 13.5765776526 7.8540907477 5.8268396117 4.3746255020 5.9948124741 5.2943177300 7.4991963993 9.4461291480 5.2591666316 2.1354503763 10.3921649312 5.3225794231 7.3224454238 -0.1962841248 6.4543707305 3.0706454787 1.1604989755 6.4832661104 2.1397951021 2.9856946765 6.1421450815 12.3149447575 2.9751796682 6.3291841746 6.0491888151 0.9042540615 7.3407312982 4.2653218288 8.3535060088 6.0651227875 0.2618192974 10.4855517070 5.3816179047 7.1682061410 4.0777459067 6.0476693841 11.6293592561 12.4987052529 6.2817490308 10.1886020865 13.1071852065 6.9404694416 8.6470994733 8.0319775784 6.2187061655 11.1749025865 4.1562273993 6.7773573174 0.4670002650 1.8047950681 6.3979734248 8.4151016010 1.4470076340 7.1180978309 11.0534945643 8.6024944476 6.6628096805 -0.2386702328 13.0932576456 7.2128242774 7.2207418703 7.0246933538 6.2549647880 4.0508856396 6.9239637539 7.1615003951 0.5357774833 7.0813571774 7.5220364865 9.2286409039 6.3381621272 7.1531636389 2.2312119443 6.5584182700 7.2581296394 11.6356777703 1.5950882408 7.3063692521 8.7998277383 9.0621356883 7.8602934483 2.1463168227 10.1696912896 7.2561448845 2.8078614893 3.8880508344 7.4766049626 3.9792653602 10.9404615891 5.7852407892 12.2287023229 10.7598519770 7.2863076015 7.5114377323 5.7391703561 7.6966922267 7.1747368225 2.7668111872 7.3716080293 10.8385728528 5.8522324491 8.0034169493 0.6393023502 11.3845597329 7.5517153669 10.0540145778 1.1012175950 8.2741260789 12.7015790544 5.9387804372 7.7098350184 5.3406794918 5.5431832253 7.4610958029 13.3704987999 3.2398439544 8.2793957003 13.4685917575 1.3357472411 8.3892472299 10.6797492034 9.1409881366 8.4259982171 7.8530368865 11.8784650035 7.1590253993 8.1104473959 3.9530032375 8.2927000728 3.8591582909 10.7356562530 7.9755326012 5.2622532615 3.1220097963 7.2610395121 0.1593314954 8.3253547851 8.7492301169 1.6154342030 1.0241787350 8.6794368449 4.2917625718 3.8533127797 8.7091358493 4.2336746094 7.8684102711 8.7324484219 11.0524456809 4.8554069320 9.4180932082 7.4364721793 10.4039301552 8.1043724267 10.8717194213 7.5275765498 9.0919999011 12.9569338653 4.6706890758 9.3438516460 6.5051725797 12.9525339539 9.7120528277 1.0487588545 11.7067716801 9.1879341521 9.7819148044 13.4186966659 9.5334760602 4.0636918530 12.4578113901 7.8456784890 5.9183290642 4.4452457479 9.7584495557 9.7829202927 2.3344478213 9.6299972624 8.1677661298 3.0346620314 10.3956128079 0.6681154798 5.8605783015 9.6732095312 2.5603609351 1.1844601892 10.2430451852 12.7138918295 0.8459443741 9.8869664064 7.6333212024 10.5717800048 9.8722839685 5.7278270069 10.0065347234 7.5804211487 3.9020762852 10.6361550619 9.7633356199 4.1998727515 2.1658851945 9.3319878103 13.2396512582 7.4656096565 11.4833156531 7.1440931408 11.9731640258 11.0453718119 9.5355368786 0.5260755136 11.1917186234 13.0702439661 8.8513837202 10.3579449239 3.9152083305 6.8356246652 10.2291897189 1.3009324497 -0.0121381530 11.0633527479 13.1630281837 3.7944502028 10.9798482763 5.3421691418 6.7256560656 11.2957514211 6.7549779826 2.1210705026 9.4119165277 1.0323254297 11.7253817614 11.2228586832 13.1955986644 12.2784006735 12.2493572909 6.7190080478 5.6938027095 10.6693965875 2.1210715597 2.6936881196 11.0570510254 4.1157727452 11.7817909999 11.1170977111 8.1208973789 4.6763672997 11.2684310828 0.5274773631 10.0159659739 11.0300575131 1.1214261360 6.3652741738 11.4542727280 3.4335686513 5.2406953404 9.6599923755 8.6340123362 12.6297197452 11.7895168265 11.0724499320 0.5307852150 12.0586209238 7.4834780105 6.5626007550 9.2608523394 0.8496275069 3.3763363620 12.1444617394 5.6007558590 0.7977152030 9.1531010230 2.6685341934 11.4488535237 12.0667477055 5.6811376297 11.4288515061 11.9783033752 4.1074940696 13.6047223449 10.4797046122 1.3227675675 5.1405825414 12.7541180399 11.6624620002 9.9120184203 9.7353903983 2.5492394506 7.4346307822 11.3625592929 8.2903250724 1.8319643117 11.7003465888 13.6671641886 1.8882278254 12.8729414454 13.0427963705 0.4494297840 11.8278403873
5.6785017299 3.8484059055 1.3491262203 7.0830331345 3.9513829521 2.4237770872 1.9351186662 11.2903217813 1.2073257805 2.0824236744 9.8732992476 2.2960642375 8.0937062586 9.8923786177 3.0554728200 13.1219559242 6.4741923400 3.4475009220 2.4118680724 12.7088856180 2.3049408558 11.9291014938 13.9864449042 3.0504671899 10.9077033594 6.6832656801 1.8063053239 12.1690669208 12.2944644011 2.3082587791 5.6668515191 1.3066294956 3.8234725074 6.8320210833 9.8985343852 1.6602828177 6.8996125351 13.3388759412 2.3167144944 11.3048421423 10.7978658617 2.7196235041 0.5928216168 8.6699483912 2.3810838520 5.6636437081 12.9838556033 3.5211255335 4.5018328734 11.7835052254 2.3186383220 5.2910249328 10.0834690152 2.5151583272 13.0122581840 1.6901637957 2.2990912160 3.5836476561 9.1230836860 2.0790474453 8.1193100559 5.3283000821 2.0078523742 8.7479770472 8.1984829330 2.6469399131 4.4760710721 4.2294192623 2.6197962761 10.1535031160 14.3615893553 3.0142752501 9.4173616315 11.0148314105 2.5913372528 8.3122640780 0.7186737846 3.0215791354 0.8917712274 3.7047476220 2.8820709051 6.4577964042 10.7677706251 3.8440967156 8.0410623066 2.4430977334 2.6206416100 1.9636776204 1.8237117495 4.4157584290 0.1684030144 4.7726104399 4.0584829573 12.2092111642 8.0000401469 2.1794705396 3.7699178100 5.9270151300 2.5233832707 11.9120003600 9.5839176210 1.3113780906 3.9155313508 1.6415258749 4.2521247631 1.9641851387 6.5427927377 4.3960153573 1.2064443841 1.7833187255 2.5488252280 11.5397476700 11.0992095448 4.7658953009 3.7503723298 -0.1747877920 3.8504943291 9.3408017702 6.5744331362 2.7147578866 3.6134428283 2.6575805021 2.6327309136 11.8502962605 8.9532867937 3.7168407650 3.7087064897 7.1695011412 3.8320910991 2.2705949434 0.7471028181 1.5002481479 5.1245128022 8.5838343085 4.1428719940 0.7066437812 7.8089512897 4.1772251947 7.9506540692 0.3142699457 4.6676035453 2.3244445570 8.9113136171 4.2886957800 12.5839865182 3.5824637970 4.8459715712 1.8546959124 12.4912898958 5.7292908631 5.9324822740 4.3298899339 3.8240275136 0.9843253761 13.5282921037 3.3652768288 5.2011892525 4.5179350943 5.8812636081 3.8667411583 3.5260720014 5.2297253744 9.4138643054 6.4051278516 4.5483571375 2.1221423609 11.2607803785 3.6078089470 5.7237480726 -0.7666029136 5.5043106412 12.1053416187 9.5692054266 5.5849728627 12.4421373200 13.7256167589 4.8640483451 1.2740211816 4.4904573335 5.6457557436 3.9009477354 -0.6697158744 6.1813309326 0.7764709488 0.2926323015 5.2937446455 6.1907217818 9.3053994705 5.5523548434 13.3240259219 7.9171938421 5.8418165457 4.2015508417 6.3599415267 5.2774235681 7.9691480122 9.3952836800 4.9967828263 2.2923857289 10.4909146725 5.3158086363 7.3100799947 -0.0032731142 6.4896851646 3.6570680718 1.0300499335 6.1270657849 2.2860842663 3.0680961938 6.2390523275 12.4410618579 3.5601987844 6.6818443967 6.0370142649 0.3043609873 7.7533683754 4.3601512648 8.6123873718 6.7372776686 0.2985698754 10.4134448140 5.8379026760 7.1434380424 4.6994795782 6.1311831631 11.7954423620 12.5075688961 6.2409630167 10.3475189564 13.3525836050 6.4368739629 8.8923831229 7.6924897016 5.6777694670 10.8025312008 4.2081702333 6.7140348442 0.6386682200 1.8610643273 6.5533207042 8.2690017985 1.5624329869 7.0586079820 10.3880444564 8.6796544467 6.0051307888 -0.1945674413 13.1047446683 7.1448503064 6.9309576823 7.4956625993 6.1453531293 3.7123093575 7.1200790732 7.3291245312 0.0548142819 7.1786703198 7.6733023714 9.1335752079 6.5230857734 7.1525706603 1.8275676243 6.9115286996 7.4979793272 11.7453634739 1.7996542081 7.2631662123 9.1259641692 9.5899487366 8.4150940413 2.2303251515 10.2810235841 7.4722008590 2.8528005953 3.8672514561 7.8359020317 4.0543342068 10.7581884384 5.7621906172 11.8337908173 10.7289833244 7.3479917708 7.1247537911 6.2252196247 7.5602660634 7.2880083333 3.2863000656 7.4565313871 10.7899942109 5.7254731998 7.7730626533 0.5026168889 10.7469255162 7.7773954698 10.0490702097 1.2663139408 7.9075217966 12.8052279824 5.4656673147 7.3515594906 5.1251190742 5.7317596998 7.4715245078 13.3696729683 3.3537269873 8.4828402745 13.6203107572 1.0631234311 8.2781295610 10.9042435154 9.2216545976 8.3999952287 8.1438895296 12.1136947442 7.1362238037 7.6709956939 4.6961910052 8.6537248172 4.1463949625 10.4619461151 7.8465417907 5.6135004077 2.9685741710 7.0262923042 0.0049213252 8.9245580142 8.5003673611 1.8266559972 0.8088458064 8.6004254402 3.3327181794 3.7447620848 9.5687710841 3.7379005340 7.3795703320 9.1107682096 10.9244679558 5.0435064844 9.4207815322 7.7561882296 10.7357767331 8.2295350429 11.6062473727 7.6196073438 8.0364971038 12.8106168904 4.7662183059 9.5203651321 6.6085517029 13.9225920702 10.8323289171 0.5246176294 11.6320129098 9.3147215394 10.0504124429 13.8503951949 9.4766149877 3.9369467029 12.3131946747 7.8131234609 4.7702559532 4.7771484739 10.2100146917 9.4389292047 2.8514790426 8.9142493693 8.1954768555 3.2581801558 10.2656670980 0.1645915593 6.4804533887 9.6047082800 2.5367399662 0.7998736452 10.2291253014 12.7765164413 0.8698743277 10.0244926922 7.4135747751 11.6106220527 9.6703694397 6.1969285657 10.2695086639 7.2563992415 4.5388102414 10.3614384957 9.6317976038 4.1587498138 1.9623009390 9.4157534686 13.2119455868 7.2398265116 11.8705377814 7.0807944454 12.3199379802 11.3224042867 9.6006108702 0.4627091934 11.2839470062 13.0674284128 8.3237224612 10.4702501406 3.6963355913 6.5566212113 10.7294084831 1.3058734202 -0.2153507484 11.1343876037 13.0477602422 3.9489457873 11.0651183093 5.2768224412 6.6429105562 11.6104065707 6.7682555412 2.4533752965 9.4715371004 0.9251136810 11.3435312597 11.2377996935 13.0912187644 12.0590660272 11.9567727798 6.4028517907 5.7659602525 10.3816218939 2.2111472558 2.6661291861 10.8231721921 4.1992303908 11.4935404621 11.0437124760 7.5870327679 4.7384004880 11.2504308644 0.3377918345 9.6356700727 11.1059838439 1.0633204184 6.0893571416 11.6598836115 2.2541972005 5.2572556462 10.2300212397 8.7205443861 12.7731673957 12.0615988483 11.1497462154 0.6124568339 12.0540271773 6.8718565157 7.0669573753 9.1486747983 0.8884115630 3.1842102490 12.0195846511 5.6691403707 0.9983794985 9.4082253486 2.6609209969 11.0345344525 11.7393188710 5.7291251289 11.3970072089 11.9926226206 3.9756153341 13.2051305753 10.2478627673 1.3703001284 4.6987370993 12.8061886385 11.4578816248 9.1075566755 10.0646368177 2.5047089491 7.1016811473 12.0394616292 8.7322940207 2.0117371720 11.5137117836 13.6153716741 1.7475729639 12.7082625799 12.8888513065 0.3197160137 11.6879227505
5.7682204577 4.0396811569 1.3856576690 7.2473296477 4.0289752834 2.4771134931 1.8959503377 11.3303746136 0.9963979555 1.8026247321 9.9259230476 2.1101494415 7.7873286248 9.8761457306 2.9858954751 12.9771925501 6.1882441139 3.6857933924 2.3751989489 12.6212256316 2.3104226960 11.9436563367 13.8381323389 3.0121318920 11.0339595764 6.7870164383 1.8500688071 11.9994668959 12.1340392319 2.1875057105 5.4775577629 1.3207248085 3.5142162145 6.3648116737 9.6126183183 1.8667169113 7.1018190085 12.9434830816 2.5877369328 11.0904247374 10.6866487335 2.8204751315 0.4429725265 8.5741546643 2.5873394136 5.4600679767 13.1221331478 3.4716224529 4.4554168231 11.8774815908 2.2985069135 4.9544989975 10.1104577824 2.7815238276 12.8411764587 1.6420223450 2.2219766015 3.3395838658 9.0549129249 2.2079561893 8.5038533187 5.2361751306 2.1685353862 8.4371066160 8.1969695710 2.4596987182 4.4841815431 4.2624731826 2.6229042221 10.1559958664 14.0335548792 2.9446116739 9.2550098767 10.9075481074 2.7183456771 8.3007199186 0.6848033761 3.1178616083 0.8084011461 3.6124959071 2.5288180026 6.2584554983 10.7220215244 4.0773337886 8.1111168988 2.3913452390 2.4869805858 1.7355516783 1.8820265612 4.3505202252 0.3061024760 4.6411588324 3.9480728434 12.0856606785 8.1319343396 2.1889288794 4.0035846347 6.0757627275 2.7075014858 11.5189485174 9.5999006872 1.3722935769 3.8325637912 1.7157757480 4.2028150456 1.7971749667 6.2248934882 4.0096864597 1.0972213616 1.7636171063 2.4434368211 11.3062314852 11.2344726468 4.7690409010 3.4795386074 -0.0940515646 3.8954889660 9.3617736189 6.7456668183 2.7841579744 3.4692521027 2.8713766422 2.6234674476 11.6904111158 8.9625324412 3.8096636094 3.5353798227 7.2134922133 4.0083326260 2.3628212986 0.5718696143 1.5191107360 4.9505322620 8.5528479722 4.2492141067 0.5305673357 7.4773235306 4.3289571984 7.9779253593 0.7289590416 4.7988828471 2.0862788430 8.6947513524 4.6820719984 12.5747462307 3.6072242445 4.6662372712 1.8941167689 12.5742754571 5.7425376093 5.9781600628 4.3446111568 3.8658546384 0.7426132141 13.4326936479 3.2986844973 5.3850364537 4.3796257023 5.9822611630 3.8741914753 3.4843298435 5.1929604166 9.1119885197 6.6365163358 4.6145477798 1.9328022739 11.0444251801 3.5217774029 5.7379838055 -0.6241721146 5.3969614840 12.0786564259 9.6632246653 5.5432929314 12.4621462648 13.7946127788 4.8423522788 1.1536095407 4.2735942675 5.6350744004 3.8202225141 -0.6581774708 6.0636349099 0.8298229063 0.3662174552 5.1723837735 6.1387001943 9.1417512862 5.5450373075 13.2718700218 7.9867496632 5.8246343701 4.1920099731 6.2923139836 5.4164925276 7.9871727509 9.2152738419 4.8989947653 2.0886859788 10.4065997482 5.3810697771 7.1739199607 0.1017674016 6.3733416110 3.5354652739 1.1818337894 6.1599644031 2.2790390683 3.0285441914 6.2203480295 12.4739096460 3.5814939734 6.4856674051 5.9810619461 0.3407693892 7.8923544388 4.4026067999 8.6795290750 6.8246767628 0.1326269508 10.5705545759 5.7060025402 7.2927594103 4.6326781773 6.2152835596 11.6746562050 12.6129964529 6.1872736147 10.3869885397 13.4401342700 6.7735455879 8.9786317248 7.8025769540 5.9394921470 10.8239286093 4.2535130588 6.6075642528 0.7456794061 1.7544231384 6.4092014138 8.2665640764 1.5707876159 7.1324128492 10.4440845115 8.8094063017 6.1237284733 -0.5562391074 13.0028352887 7.3401986778 7.0797058724 7.5627077892 6.4813137995 3.8948950693 7.0145356551 7.2475058883 0.1795591829 7.2435572002 7.6336096261 9.1618907273 6.4031587034 7.3421457000 1.8286081340 7.1008291754 7.1792820400 11.7529352868 1.9388425874 7.3849568579 9.0439575507 9.5966289388 8.0795945037 2.1501971162 10.2826362027 7.4171797501 2.8860499269 3.8165019964 7.8418477872 3.9333274841 10.9077667378 5.5741706134 11.9727551741 10.4397097925 7.4594102109 7.2740127953 6.1304019435 7.7727581483 7.5246892421 3.2216565132 7.5818674169 10.9295213503 5.7613316678 7.7415354303 0.4073084445 10.6225616258 7.9755457237 10.0159567923 1.3974719816 7.9189080945 12.8267659142 5.4504195740 7.2784033354 5.2499455348 5.6873640779 7.4868390546 13.5276939811 3.2356774617 8.3916884332 13.6087295705 1.0708606442 8.2907335151 10.8338553546 9.1967022126 8.3952176679 8.2238591016 12.3141133586 6.8439054831 7.4270465696 4.6528303934 8.8469591628 4.1932250751 10.5791491126 7.6644463003 5.7738261784 2.9429440023 7.1083576807 0.0977191977 8.9540773671 8.5613287562 1.7388774430 0.7555433200 8.6890624532 3.4045334253 3.7706206976 9.5878148470 3.7167233995 7.2577041713 9.0111929469 11.3346242103 4.9044081478 9.3231221913 7.7450218066 10.9029011195 7.9174641433 11.4881462184 7.5114890891 7.9663598836 13.0732430094 4.7542055399 9.2877713177 6.6018753073 13.8015726640 10.9157625431 0.7560433884 11.5667857188 9.3930911065 10.0230752353 13.8255400654 9.4050634291 4.1974055528 12.3642975874 7.6995800437 4.8491766572 4.8845686233 9.9675886282 9.3745111199 3.0567667924 8.6311355566 8.4076333919 3.3299007993 10.3112582629 0.1560124585 6.5910516437 9.4908762444 2.7285287101 0.7658276586 10.1893496910 12.9217359960 1.0126215284 9.9842193874 7.4472173419 11.4539405087 9.5113092550 6.2181707771 10.3084516108 7.1131786611 4.0418850435 10.3169475115 9.4053441733 4.3412150683 2.1018153914 9.5613263588 13.1709810445 7.1220557712 11.9595239023 7.2460887306 12.1573504549 11.1736929347 9.7316091808 0.4453663667 11.2216584987 13.0489263882 8.3398045337 10.5346441039 3.7328075253 6.5345614313 10.6579498197 1.6249467766 -0.1908452582 11.1892264661 13.4392234423 4.3361288669 11.0673823686 5.2507081608 6.6497590452 11.6761292777 7.0455639725 2.4113725056 9.4710886185 0.9573872797 11.4299210201 11.2195560730 13.2690526567 12.3392573266 12.1858856291 6.4411409553 5.7393497118 10.5967944866 2.3491599409 2.5391842542 10.8946474155 4.2326477061 11.4418991889 10.9191995453 7.7233828344 4.7213568378 11.3598314276 0.5349264609 9.6008230274 11.1797569362 1.0910862581 6.0297454882 11.7840005040 2.3811430683 5.0733222073 10.5291368794 8.8282861940 12.5462462804 11.9178207782 11.2492141262 0.6463397971 12.1379663080 7.0429616872 7.0057578708 9.3833075427 0.9816915516 3.2770165032 11.9468648637 5.8155645371 1.0225899165 9.4805810817 2.7314455780 11.2850887497 11.8064787165 5.8125448328 11.2957249543 11.8073027647 4.2150710006 13.1803471115 10.3347252325 1.3411073099 4.7124944015 12.9688895024 11.4071574792 9.0215865360 10.0768093346 2.5025267146 7.1803533601 11.8390120448 9.0113212899 2.1013742850 11.3384422800 13.6692217087 1.9464955405 12.7525691194 12.9768229919 0.5336484639 11.7517757277
5.8291743562 4.2082071051 1.2823961556 7.2074958798 3.9792341416 2.4366203731 1.9161719700 11.5454184215 1.1291942317 1.8330780623 10.0089723460 2.0339862374 7.7871576864 10.0402681146 2.9695267713 12.9419254525 6.3145563108 3.5405744027 2.3535230108 12.8902706671 2.4560389582 12.1015750299 13.7221378330 3.1977594047 10.8801734395 6.9711072728 1.5909876754 12.2235074837 12.0663597203 2.4309272753 5.3031562150 1.4559644008 3.6368037181 6.3946693967 10.0740956577 1.6759558391 7.2072108293 13.3025169703 2.6173510132 11.1361213732 10.7447564136 2.9739996814 0.4716999232 8.5364109503 2.3250846583 5.5907078498 13.2392384156 3.5511851429 4.4382927317 12.0407198357 2.2823573413 4.9232237324 10.2312798802 2.6452091218 12.7307460331 1.6123091667 2.4236691219 3.4574346295 9.3468588488 1.9577718155 8.0315926875 5.4601844621 1.9957915289 8.4248108254 8.3751710475 2.2267800479 4.5503824198 4.5695728298 2.5180475230 10.2632832240 13.8709039690 3.2805016736 9.3785524395 11.0475013496 2.6628568223 8.4872511700 0.8483064482 3.2127212366 0.6066358610 3.8218320470 2.6359187146 6.2221798877 10.6754224549 4.1192838981 8.1405808684 2.4780395750 2.4226672679 1.6405904413 2.1235959727 4.2707788422 0.1806493693 4.7799453465 4.1370325175 12.1537452459 8.2078806778 2.0558660393 4.0659317372 6.3266254021 2.6912935258 11.5468081967 9.6987831388 1.3456354733 3.6150031973 1.9669185920 4.1607429560 1.7743686465 6.2371639568 3.8637058872 0.9246007942 1.9793847277 2.5982908736 11.3495340363 11.2157819753 4.9759332525 3.4767721163 -0.0261985256 4.0230139167 9.2273277849 6.7921983585 2.3843522452 3.4699127547 3.0941221258 2.7940176848 11.8453653836 9.0227296487 3.7398345106 3.4243985060 7.2108599791 4.0935919714 2.2000711615 0.9011367874 1.6056818355 4.9414124192 8.6775254216 4.1114304018 0.6031739944 7.6161186754 4.0933818763 8.1442227850 0.8460856379 4.9451190979 2.2078344188 8.6803817871 4.5582564770 12.4687806619 3.7763261752 4.8696589807 1.7118224037 12.5664158166 5.8339700553 5.9854070709 4.4618736694 3.7699313944 0.8130458598 13.5065331795 3.4753791762 5.5931078160 4.3607200121 5.9107003164 3.9195828316 3.3586931614 5.3842006421 9.3712855474 6.7970306575 4.1664135559 1.7940293598 11.1156016113 3.5241553809 5.7605823758 -0.5177091853 5.4569189457 12.0959275585 9.5701688598 5.5287809052 12.6571882151 13.7072169181 5.0386832872 1.1491603492 4.4450962485 5.7871465782 3.5907706995 -0.5642994360 6.0708551991 0.9482379936 0.5430982394 5.2212032291 6.1413971536 9.1707677863 5.4104113677 13.3588520999 8.0501915808 5.7952378643 4.0892611046 6.0859670025 5.3384273988 7.9171395529 9.1903606264 4.6607042256 2.1193247381 10.4955054928 5.2648633768 7.3585508201 -0.0648904854 6.4426719509 3.0235355886 1.2131039154 6.1803844811 2.2735127054 3.0808702362 6.4593885808 12.6303250142 3.4983923986 6.6998902342 6.2390107007 0.1938119816 7.9226679843 4.3944385680 8.4929286806 6.7367369006 0.1729756340 10.5860280378 5.7151031936 7.4548398218 4.5579662009 6.2867448747 11.7185789360 12.6207779909 6.3228894393 10.3212131151 13.1778001438 7.1170802538 8.9625143155 7.7854975775 5.5380450472 10.8007319954 4.0537845385 6.8436251294 0.5871415960 1.9730299277 6.5240519564 8.4613692704 1.5476609266 7.1615071308 10.4232698530 8.7288493765 6.0016401753 -0.4676022299 12.9329884676 7.5848792103 7.0825594894 7.7069760616 6.2917724302 3.7748954234 6.9064923830 7.2020149965 0.2417732303 7.1843271769 7.5127890698 9.2368815473 6.4852227528 7.0585909341 1.9374525947 6.8971407050 7.0894295070 11.8684511809 1.7828821405 7.5094942320 9.0674430774 9.4895613199 8.2465181405 2.2048690534 10.0106922336 7.1410229467 2.8646821234 3.6315730338 8.0687434073 3.8144054402 10.9671853657 5.4932002039 12.0110779461 10.3649168148 7.3494199717 7.2552930790 6.2348077608 7.5643059717 7.5441433422 3.1511669748 7.6168548324 10.8436177063 5.5887723317 7.7370319951 0.4686953288 10.6506528293 7.8606352878 10.1534397859 1.3079971856 8.2089820051 12.8000607139 5.3446351773 7.3262365422 5.4140313812 5.6930022511 7.2328132536 13.4647388411 3.3102672261 8.5763125593 13.5376741916 0.9588357240 8.4309675673 10.9396525396 9.0090935922 8.2519343018 8.1806604503 11.9151756026 6.8607745807 7.3779608492 4.7000488610 8.7568186952 4.0906661661 10.4325827624 7.5912611975 5.8674223851 2.8423961301 6.9058712631 0.2492132699 8.9492017667 8.4882853608 1.7279356782 0.8325728528 8.6652018418 3.4415434743 3.6211099301 9.7811273821 3.8414386937 7.2512208698 9.0177985145 11.2758415869 5.1687080054 9.4421674989 7.7032989793 10.6322055746 7.9390352398 11.6538932541 7.4159846980 7.9104062462 13.0710699906 4.8600332016 9.4192179997 6.6283030037 13.7069253555 10.8391405413 0.8666675078 11.4631870763 9.3212568714 9.9516218809 13.8777218781 9.6618467199 3.7572986659 12.2939046597 7.6189441758 4.8516305843 4.7428758420 10.0109064391 9.4291721175 2.8536320166 9.0689042991 8.2567669492 3.2313086244 10.4176535938 0.3691796128 6.5460872761 9.3924847658 2.5740230240 0.7191350700 10.2903944958 12.8226486519 0.9292728146 10.1199612218 7.2881547216 11.2651263161 9.5315077425 6.1151409792 10.3692163545 6.8939103173 4.3801277519 10.1736859305 9.2980918665 4.1780997956 1.8695336451 9.6293616106 13.1606397018 7.0049363043 11.7670999168 7.2363149294 12.0253164311 11.1288783294 9.7199151430 0.4372946841 11.4644769599 13.1723910721 8.2968358645 10.4647780025 3.6240361536 6.4207396174 10.6091486059 1.4190203020 -0.1815065463 11.2105058418 13.5614591547 4.2951063561 11.1112605200 5.3743819961 6.6871941426 11.3198919398 6.8629688265 2.3916492006 9.4982086199 0.9051917135 11.4475801754 11.1962462995 13.1713657009 12.1724862264 12.1473836384 6.5159216898 5.7119593524 10.2584510277 2.3111897933 2.4232657031 11.1029694121 4.1379299298 11.3035446750 10.7878082244 7.7035684318 4.7430495891 11.2502500494 0.2705069784 9.6930565690 11.2547963230 1.1038190644 5.9484572281 11.7841758783 2.3994498617 4.9747081815 10.5235787897 8.7876629276 12.5342930902 11.9618163518 11.2780729579 0.5140439885 12.3099833027 7.1359521110 7.0703425577 9.1119161112 0.9893501275 3.1792820708 12.1194343045 5.7435838548 0.8687240582 9.4929878026 2.6747680987 10.9796655118 11.5949172651 5.6610535848 11.3511001679 11.8575163046 4.0140160625 13.0517373661 10.3494891454 1.3575699446 4.6765365301 13.1303406743 11.5831827789 8.9855148542 9.9488850157 2.3012504445 7.2103756709 11.5646847874 8.8512054936 2.0766477517 11.6338496615 13.9512760218 1.6825950654 12.8580000280 13.1411834406 0.3896885012 11.8532900320