-132836.7383121
-132834.6617285
-132838.6672935
-132838.5449474
-132838.9853155
-132838.4601799
-132834.7498434
-132834.8830146
-132839.1595581
-132839.1425000
-132837.0512140
-132836.0939044
-132839.2609810
-132833.8194219
-132835.4474337
-132835.4208635
-132835.7651420
-132835.3790118
-132838.4680061
-132838.4086064
-132835.0068818
-132839.5318569
-132839.3763210
-132835.0771272
-132835.4625323
-132834.9624554
-132838.8450517
-132838.3045929
-132839.2228827
-132834.2723228
-132834.5487598
-132834.1844206
-132837.9385137
-132834.8936778
-132838.1990239
-132834.4036099
-132836.1349932
-132837.7453638
-132835.8368569
-132833.0716640
-132834.5618665
-132835.0489259
-132834.8877684
-132833.6767744
-132838.9495726
-132835.7266400
-132838.7069085
-132835.9166115
-132838.9491909
-132835.2131857
-132836.4189732
-132834.3894282
-132838.5397743
-132833.3588586
-132838.3911691
-132835.4252861
-132834.7626315
-132837.0432998
-132836.2591381
-132838.2087571
-132839.1632799
-132838.3245722
-132835.4731966
-132839.1979016
-132838.9643540
-132839.4032919
-132834.9726800
-132834.4830548
-132834.9065674
-132835.1395415
-132834.6470849
-132838.4240721
-132837.6533241
-132839.0681180
-132838.6694025
-132835.3373654
-132835.7068535
-132838.8691943
-132838.8064151
-132838.4323716
-132834.6824759
-132838.2845291
-132833.2945035
-132832.7350882
-132835.5158771
-132836.8855452
-132835.1762116
-132837.5766230
-132835.5416242
-132837.5337375
-132838.8909253
-132834.4374297
-132835.6874001
-132834.7661764
-132834.5739478
-132834.6166102
-132835.5541225
-132835.8752667
-132839.3133999
-132835.2464000
-132829.4632114
-132827.8190722
-132828.7402992
-132828.5328711
-132828.4036454
-132829.8210469
-132837.6579771
-132838.8253813
-132839.0298998
-132828.1745185
-132828.3321074
-132824.5347665
-132828.2142981
-132837.7263858
-132828.0264439
-132828.3051780
-132836.8079222
-132826.9703783
-132837.4891582
-132837.8662648
-132828.1684007
-132836.3949170
-132826.8700151
-132837.4181507
-132837.8704922
-132828.5089117
-132828.6418087
-132826.4846691
-132828.6687054
-132829.0418596
-132829.1467580
-132828.6701326
-132830.4204481
-132837.8180183
-132828.7209741
-132827.8390013
-132828.7217217
-132828.7369445
-132828.7553304
-132827.5218983
-132828.0559443
-132828.7353265
-132827.8147576
-132827.3543762
-132828.3301805
-132825.4620815
-132829.3597691
-132838.1341563
-132837.9282460
-132837.9945681
-132837.5909299
-132825.7014189
-132829.0222719
-132838.1732376
-132827.1068904
-132827.9929724
-132829.5360415
-132829.7259476
-132837.6274823
-132828.1421050
-132827.6711227
-132838.2133515
-132837.8325497
-132824.9428007
-132828.2295693
-132837.5599557
-132838.2089459
-132830.3105910
-132838.9347232
-132827.6156951
-132828.9434407
-132828.6707751
-132827.4193218
-132838.2315308
-132834.5056295
-132838.7030384
-132837.2285514
-132836.5180691
-132838.0748088
-132835.7163833
-132837.7848191
-132836.4238749
-132836.7533240
-132835.8372038
-132834.4331904
-132838.2062864
-132838.6235055
-132836.9331709
-132836.8965852
-132835.2005792
-132835.1950359
-132837.5172193
-132835.6909897
-132829.9293260
-132838.2640938
-132837.7255193
-132834.8097141
-132837.5141675
-132838.8030821
-132834.5623301
-132837.5131559
-132837.3572920
-132838.7797879
-132838.2211937
-132833.8100208
-132835.8462796
-132838.2984424
-132835.9048438
