   0.7492842   -0.3912702   -1.0592102    0.6612460    2.3268441    0.1877007    0.9935211   -0.5298007    1.5526537   -0.7993778    1.0235309    0.6354800    0.1813781    0.7519176    0.0868129   -0.7336634   -0.3980078   -0.4181737    0.0585986   -0.8612022   -0.0748995    0.4861637   -1.8995465   -0.5690266   -0.3112815   -0.8187472   -0.4253882   -0.4004854    0.6269729    0.6765138   -0.2938841   -0.0382004   -0.0982439   -0.3971538   -0.6213720    0.7045587   -0.4102912   -0.4477897    0.2398724    0.0573754    0.4952871   -0.8015371   -0.9895902   -0.1010990   -0.4499084    0.5747187   -0.0358395   -0.1211102   -0.2086347    0.9144507    0.5410007    0.1561610   -1.4489016   -0.4632561   -0.6026602    0.0458017   -0.2006120    0.5755156    0.2544410    0.0107796   -0.7339863   -0.7248352   -0.3661356    0.3195552   -0.0472957   -0.3351479    0.0480532    1.6999290    0.2716931    0.3748408    0.0131826   -0.1261022   -0.7099469   -0.0389176    0.1170136   -1.2276101    0.6070110    0.8464569    0.2151244   -0.0417726   -0.2372571    0.0100449    0.0004903   -0.3613412    0.5211500   -0.6594270   -0.1073364   -0.3520812   -0.3379591   -0.3497361    1.0278267    1.2666491    0.5040507    1.5272417    2.0299890    0.1246556    0.2932942   -0.7240756    0.5238863    0.5827924   -1.0074051   -0.0609268   -0.2507309    0.5336513    0.1277495   -0.9446314   -0.2780562    0.2161374    0.6271631    2.4671358   -0.4809637    0.1576790    0.0055228    1.0243740    0.4480685   -0.1957567   -0.3408081   -1.4121883   -1.2557114    0.7155848   -0.8699643   -0.5822707    0.0939272    0.2165598   -1.1585081   -0.5954531    0.2543265   -0.0883589   -0.2582278    0.8760236    0.9224364   -1.2327295    0.3749056    0.3016417   -0.3057895    1.1747318    0.4322445    0.8568043   -0.2393953   -0.0336373   -1.0245747    0.2457359   -0.0226821   -0.4598632   -0.8808319   -1.2439471    0.4025254    0.5026684    0.4005591   -0.8103636   -0.4025887    0.1017541    0.4950478   -0.5773630   -1.4017351    0.9028070   -0.6456636   -0.2557156   -0.0284733   -0.3248355   -0.5082431   -0.4361962   -0.1217527    0.2369952   -0.5607894    0.0243865   -0.9948048   -0.8363323   -0.3390246    0.2492258    0.3820511    0.0310087   -0.2168373    0.5160541    0.2279540    0.7292015   -0.1448483    0.2163112   -0.4384432   -0.3818128    0.2970362   -1.5407552   -0.3299367    0.3057951    0.3085822    1.4888299   -0.2514185   -0.8443172    0.4408608    0.3612639    0.3105525   -0.4339829    0.1082543   -0.1755767   -0.3771673   -0.7260818    0.1812551   -0.0936674    0.5071898   -0.2926988   -0.4491207    0.5782669    1.0803278   -0.7977246    0.0135612    0.9958009    0.0876145   -0.6830268    0.4770312   -0.3609650    0.3995133    2.2622586   -0.3420419   -0.3773701   -0.9381506    0.6472247    0.4295772    0.5544185   -0.6594332    0.5947523    0.3659270    0.5661458   -0.0535967    0.3898519   -0.4128263    0.0551864   -0.4997089    1.2713667    0.5726319   -0.1103354    0.2585594    0.2155121   -0.5353958   -0.9727650   -0.4935680    0.9192855    0.2262394    0.3057617   -0.6214430   -0.5004440    1.3555757   -0.8299516    0.8229112   -0.0742203    0.0617601   -0.1758585   -0.7419146    0.1054462   -0.7521091   -1.3777853    0.0221708    0.4023244   -0.9261432    0.5697517    0.1387917   -0.4812457    0.2870488   -0.0105028    0.3084336   -0.4206118    0.9456497    0.5244401    0.4269327   -0.3447012   -0.3520907   -1.1152131    0.7801049   -0.8687098    1.1578023   -0.0027508   -0.2048940   -0.0813139    0.5766199    0.2107659   -0.3090689    0.4013080    0.6250042    0.1319317   -0.4175895    0.5280252    0.6927482   -0.4963821    0.1465794   -0.3313477   -0.7477971   -0.8105811   -0.7512331    0.5145785    0.5690178   -0.0047008   -0.2328907   -1.4069236    0.6590332    0.9152642   -0.9886598   -0.3630534   -0.1386058   -0.2716185   -0.1683443   -0.0287606    0.3683697   -0.1265490    0.3307097   -0.0607540    0.0190403   -0.4901032   -0.0389601   -0.7290520   -0.2993731    0.9308230   -0.6031150    0.6487273   -0.2062454   -0.4989831    0.6067017    0.5953581    1.4486021    1.2548251    0.7827019   -1.7437634   -0.1661324    0.4518522    0.5655873   -1.0353098    0.5769171    0.4608034   -0.9409251    0.9194501    0.4695297    0.9597005   -0.1314475    1.0232926    0.5328978    0.0795958   -0.5079889   -0.2758715    0.3403972    0.2911811   -0.0384308    0.4721740   -0.6289343    1.2041326   -0.1705298   -0.3458303   -0.7000216    0.0056296   -1.2106376    0.8597528    0.2717036    0.0418713   -0.1993573   -0.1689894   -0.0282366   -0.1328015    0.2711179   -0.1247848   -1.7226531    0.1753809    1.2581704   -0.0006417   -0.6012224   -0.4620621    0.0192791   -0.6043220   -0.2231154   -0.0810251    0.4031559    0.7812263    0.2061771    1.0149918    0.0651670    0.1356724   -0.1930134   -1.2613181   -1.4034713   -0.0802710   -0.1342373    1.0355067   -0.2417131    0.3521890   -0.2461669   -0.4311610    0.4752872   -0.8309661    0.0700559   -0.5204854   -0.6325214   -1.1172357   -0.5853630    0.6908119    0.0510151   -0.7600527    0.9342315    1.7468010   -1.7640804   -0.0959992    1.0472778    0.0610959    0.7895541   -1.6747527   -0.4158683   -0.7001913   -0.9510668    1.5723247    1.0534191    0.6883648    1.6880301    0.0538242    0.2416148    0.2327582    0.0524874    0.5382112   -0.0810248    0.4756727    1.1121325   -0.1987052    0.3036055   -0.3252872    0.2565225    0.4723758    0.3639787    0.4456894   -0.2904549    0.5623963   -0.4069207   -0.0279530    0.4275236    0.4581016    0.4456661    0.4077126    0.7440221    0.5996226   -0.0321817   -0.8531766   -0.0115837    0.8322148   -0.1502122    0.7027707   -1.1509838    1.0241479   -0.6358295   -0.1095400   -0.4913286   -0.0291846   -0.8990552   -0.1360338    0.2572389    1.4599762    0.2447005   -0.2035507    0.0109703    0.7254881   -0.5983527   -1.2409979    0.5649754    0.2449532   -1.5299869    0.4946777   -0.2708835   -0.2233032    0.3105885   -0.0189172   -0.1036906    0.3634165    0.0360105   -0.3582875   -0.4826505    0.2684878   -0.2844981   -1.5754601   -0.3359523   -0.5517921   -0.0140001    0.2689832    0.4075955   -0.4893326   -0.8380979   -0.4065165    0.5487248   -0.2546719    0.1894762   -0.5150158   -0.3076838   -1.7262432    0.6526766   -0.3424789 
  -0.3545187    0.4268805   -0.6517055    2.3860557   -0.8223069    0.4375724   -0.0006326    1.0769466   -0.5898267   -2.6223741    0.2910869    0.9545356   -1.0738319    0.4219560   -0.3011912   -0.0342562    0.5308288   -0.4736076    1.1561100   -0.3688458    0.7808032    0.1086102    0.7227071   -0.0309061    0.8861962    1.0734574    0.3609142   -0.5346656    0.1401676    0.0729112   -1.0774053    0.3788082    0.6237287    0.3122457   -0.7015469   -0.5188041    1.2196607   -0.6690741   -1.4629407   -0.0834554   -1.5339535   -0.0618390   -0.4521858   -0.8364017    0.4293898   -0.6520732    0.2218194    1.2259542    0.7021677   -0.6877191   -0.0713001   -1.1666150    0.6546527    0.8873718   -1.2117696   -1.0314817   -0.0942335    3.1601261   -1.3080631   -0.8129071    1.0352606    1.2514900    0.3488367   -0.7859129    1.6688791    0.0652795   -1.6778119   -0.3678451   -0.0341035    2.2863817   -0.9031470   -0.5618547    1.6142934   -0.1910329    0.3509036   -0.7037326    0.1689786    0.3990139    0.3499581    0.4580979   -0.5481784   -0.6255264    0.4924074    1.0290926   -0.1577693    0.7503862   -0.2262475   -1.6599430   -0.2455131    0.7804227    1.1476117   -1.3272036    0.8858517    0.0626152    0.5419839    0.0431894    0.5103663    0.0962255   -0.1649257   -1.0617229   -0.0001354    1.1233719    2.3527389   -0.3231567   -1.2597520   -1.8564647    0.4687030   -1.0829716    0.5586742    0.3655410    1.5685858   -0.3846033    1.3172259   -0.6416736   -1.0938049   -0.5224203   -0.3399379   -0.3274546   -1.7397728   -0.1945048   -0.6345813    0.4738186    0.5147750   -0.0183557    0.0396367   -0.2084050   -0.7578772    1.0856702    0.5304761   -0.0299329   -0.0990573   -0.9565467    0.6394596    0.6942805   -0.8909048    0.4736056   -1.6926578    0.9106518   -0.0491285   -0.2815394    1.2404866   -0.1023615    0.2508251    0.5234657    0.2115459    0.9030994   -0.1950126    1.1837835    0.6509947    0.4474146   -0.8292878    0.3434378    0.5417069   -0.4852935    0.1064826    0.3678773    2.4786711    1.6535251    1.2497610   -1.1477294   -0.9177305   -0.9303770    0.0461510    0.1353957   -0.8330448    0.0503081   -0.7094302    0.1636591    0.0432280    0.0318715   -0.1283472   -0.5547475   -0.9163226    0.8129971    0.9204353    0.0420205   -0.5219600    0.5564713   -2.0991463    0.4726843    0.6210953   -1.5187298   -1.8845291    0.7034545    0.4167507   -0.4034176   -1.4188236   -0.3857348   -0.3597022   -0.0684733    0.4553229   -0.6692243    1.2213669   -1.5971669    1.1547470    0.8554355   -0.6475802   -0.0375289   -0.6564353    0.7789028    0.4356236   -0.2094080   -1.3076846   -1.3985335   -0.8139968    3.0376840    0.4937755   -2.3218124    1.5478035   -0.1772100    0.9622438   -0.9613899   -0.3519900   -0.0984924    0.4380772    1.5771351    0.3293834    0.9773392    0.7115413   -0.3731754   -0.2539791   -0.6173489   -0.2209825   -0.4982257    0.8397767   -0.7460156   -0.7184828   -0.4554652   -0.1840604    0.2430693    1.2759596    0.6679152    0.3134356   -0.1221937   -1.3124859    0.7432699    0.3886852    0.9597103    0.1292498   -0.4748530    0.0690180    0.6382614   -0.0290694    1.1765063    0.8946798    0.1898242   -0.5879873   -0.1095424    0.0781775    0.4690557    1.0319781    0.1142376   -0.5502409   -1.8834989   -0.0475442    2.1170330    0.5922747   -0.5441359   -0.5344546    0.0479090    0.9733689   -0.3447479    0.3109400   -1.1150069   -0.1881428   -0.1136127    0.9897250    0.1290459   -0.6290988   -0.0005141    0.9727168   -0.2180176   -0.2444117   -0.0945586   -0.6264227   -0.3838772   -0.6434215    1.1663520   -0.7863252    0.1288581   -0.9005567   -0.3568788   -0.1904554    0.1865022   -0.1130010    1.2618582   -1.0450404   -0.3006099   -0.1566710    0.7062656   -0.9311742   -1.3560447   -0.9545006    1.7667312   -0.4148388    0.6210368    1.8470425   -1.3851591    0.2699932    0.6556810    0.6958237   -0.5135799   -0.8987742    0.0957291   -0.6814851    0.0528621   -1.0532425    0.4616138    0.6046899    0.3727251    1.4626789   -0.2773592    0.0983905    0.4244790   -0.3312339   -1.1772747    0.1029276    0.0463144   -0.0347328   -0.3896413   -0.6291950   -0.0606556    0.9206721   -0.1646787    0.7340667    0.8460464   -0.3186125   -1.2285709    0.1493383   -0.0453219    0.2720986    0.6793064    0.1798173    0.5509705    0.3709108    1.3516477    1.2229172    0.7723997   -0.4898277   -0.4420809    0.5078337   -1.8604064   -0.7367682   -2.7854252   -0.7380195    0.0273171   -0.4540465   -0.9545854   -0.7519049    0.3071198    0.1758513    0.4764887   -0.7317694    0.2124321   -0.3381715    0.4207118   -1.9738030    0.0886091   -1.2877122    1.1821267   -0.7410003   -0.6561610   -1.2457592   -0.1579369   -0.8001383   -0.5342636    1.8856851   -0.6721472    0.5695779   -1.0871059   -0.1594547    0.3152801   -0.2616695   -1.1498604    0.3379530    1.1321802    0.6936230   -3.4007180   -0.4479033    0.2001662    1.5921170   -0.2836973   -0.5738862   -0.0106780   -0.5829126    0.2407423   -0.4519923   -1.3800463    1.4426537    0.6861340    0.3158453   -1.4157636    1.3085376    2.7823970    0.1578642   -0.1743558    0.7061566    1.0651468   -1.6297852   -0.8714080   -0.1664844   -1.9111197    0.0834001   -0.8474995   -0.1414916    1.9919005    1.3236707   -0.2393610    1.3104280    0.4886250    0.9076735    1.2474060    0.5046350   -0.8763996    0.1764153    0.5571454   -0.9916477   -1.5164592    1.7568823   -2.4072409   -1.0190259    0.3202835    1.1106200   -0.3927998   -0.0155365    1.4353455    0.2187444   -0.6166883   -0.0188118   -0.4047140    0.0257205   -1.5777233    0.0622449    0.1376218   -0.2172439    1.1554911    0.3258530    0.7872085    0.3829377    0.9627537   -0.6658610    0.4015247   -0.5889980    0.7749816   -1.6216733   -2.1724756    0.6066134    0.6603445   -0.0805986    1.1720284    0.0509574   -0.0714980   -0.2925264   -2.5233027   -1.4079282   -0.2859541   -0.1376116   -1.1987039   -1.0260924    0.5758428   -0.0970756    0.8910803   -0.8569273   -0.2883527    1.2324862    0.6556489   -0.4621029    0.9746382   -0.2235780    0.0349287    0.8748710   -0.9798291    0.6117198    0.9782993   -0.7045370   -0.0840007   -0.8270038   -0.7061060    1.6765950   -0.5730081    1.0273822    0.7486676   -0.1636813    0.8776624   -0.5012222    1.0496652 
   0.5949111    0.0621203   -0.0789345   -0.2360820   -1.8142939    0.3667924    0.0428595    0.3567759    0.7539215   -0.8375115   -1.8927880    0.5331176    0.6919149    0.0588262    1.8334840   -0.9014340    0.9417642   -0.2833823    0.4291821    0.1704016    0.4952055    0.1609177   -0.4722711   -0.7780011   -1.4563568   -0.2368662    0.4550674   -0.3594356    0.0321714    1.0211644    0.0896974    0.8471900    0.1857096   -0.5077484    0.2472063   -1.2478069   -0.6326750    0.7287500    0.3265004   -0.9318502    1.9402396    0.1583269   -0.9398053   -0.5253067   -0.5033412    1.6742512   -1.8127641   -0.4319651   -0.5165526   -0.1536673    0.3919647   -0.1061183   -0.5160543    0.5917558    0.4554296   -0.9620070   -0.0739058    1.1293961    0.3471351    0.0732550    0.3989647    1.2938907    0.0067800    0.4154638    0.2006027   -0.1467103    1.1940774    2.8649173    0.5897000    0.1141791   -0.0476083    0.2616135    0.5275458   -0.2180062   -0.1534715    0.7598580   -0.1615296   -1.5158546    0.4245016    0.1946588    0.0558540   -0.3727468   -0.7792132   -0.2873883   -0.9418041    0.9627839   -0.0721486    0.8094951   -0.1586897   -1.4197960    0.6870657   -1.1907383   -0.5304839    2.3540766    1.0964736    0.4094390    0.1261946   -0.1676937   -0.2560581    0.0567091   -0.7196583   -0.0983091   -0.4190923    1.2217235   -0.6490619    0.0012386    0.1036912    0.5477926   -0.5740524   -0.0028944    1.0029412    0.0738434   -0.2207717    0.3967817    0.6412203   -0.8577286    0.1477722   -0.3209577   -1.3821032   -0.1837196   -1.1413442   -1.8900096    0.6644274   -0.2523009   -0.2535762   -1.1566632   -0.2002759   -0.8960553   -0.0163497   -0.9087342    1.5202248   -0.5088819    0.3697145    0.4371525   -0.7367117    1.2610903    0.8132613   -2.0812556   -0.2854354    0.0399053    1.2011290    0.6323181   -0.1550814    0.2989821   -0.2596064   -0.2318094    0.3164686    0.2378613    0.2117321    0.3687573   -0.0437997   -0.4349966    0.1231340    1.1027595    0.5190004   -0.7010176    1.4113368    1.1459982    1.0777719   -0.3596369   -0.3311347   -0.3885262    1.0696972    0.0218564   -1.2398755    0.1210071    0.2906302    0.0929707   -1.3869106    0.1915217   -0.7653466   -0.5182914    0.2333375    1.0166513   -0.0692643   -0.2166138    0.5857423    0.3712210   -0.0212369    0.3988252   -0.5926819    0.5818282   -0.4719982   -0.5135154   -1.1520569   -0.2590810    0.2833414   -0.1978191    0.4779176   -1.1072684    0.3053825    1.3409512   -0.4200051   -0.3463874   -0.4457402   -0.6440840   -0.2028056   -0.2362307    0.1163855    0.6047261    0.3165992    0.6642331   -0.3028674    0.9357016   -0.0346255    0.1812519   -1.0575068   -0.4063860    0.3613392    1.2620667    0.1469477   -0.9044462    0.8757252    1.6315457   -0.4997387   -1.2712361    0.5896384   -0.2069211   -0.0461994    0.5921737   -0.1550663    0.5623558   -0.0395681   -0.4264253    0.9157549    2.1467211   -1.1606201   -0.7741169   -1.8499236    0.9927286    0.2518684   -1.6335047    0.0763797   -0.2258509   -0.2333552    0.6764653   -0.0329623   -0.4442449    0.0491630    1.5561527    0.1697948   -0.7586507   -0.6359252    1.0985555    0.3552076    0.0687663    0.9345108    0.5174246    0.4237323   -0.5528229    1.3424555   -0.6256886   -0.8982733    0.5188854   -0.5761881    0.1620570   -0.0010778   -0.2791001    0.1880201    0.4156908    0.2879534    0.7513487   -0.6175300   -0.3066576   -0.5253302   -0.1072176   -0.1166765    0.2045706    0.0497769    0.4326799    0.5726844    0.3438888   -1.4253391   -0.3607794   -0.2756956   -0.3539028   -1.2562110    0.5924138   -0.1146637   -0.8244659    0.3419194   -0.2375501   -0.7539849    1.3940511   -0.3304381   -0.3867876    0.9732571   -0.5605043   -0.8635972   -1.4538596   -0.3346950   -0.1156341    0.5965394   -1.6001204    1.5378625   -0.2706005    1.1195357    0.6995090    0.6176350    0.2990168    0.8715519   -0.5918566   -0.8094356    0.4244280   -0.0464182   -0.2049049   -0.9270116    0.4863843   -0.3832981    0.0057217   -0.1982947   -1.4244515   -1.0235335   -0.1931163    0.2233502    0.3244340   -0.2904476    0.1785991   -0.9607889   -2.1216580   -0.4360356   -0.5089793    0.3487108   -0.6667989    0.0061301   -1.0369542    0.6973834   -0.0874624    0.0740948   -0.7777928    0.5350656   -0.7983411    0.0407069    0.1155591    0.2757881    1.1393806   -1.6442871    0.7604158    0.0092270    1.2806123   -0.5688857   -1.5290952    0.5582074    0.0885461    0.3035347    1.2780467   -0.6136440    0.3890569    0.9925716   -0.2815541    0.1125516   -0.2770516    0.3748837    0.0981943   -0.3275735    1.2064655    0.0371763   -0.6687897    0.3471182   -0.0384829   -0.2979056   -0.4393977    0.0844241    0.1577601    0.2532958    0.7414862   -0.8750590    1.7385090   -1.5651629   -0.0701875    0.0985980    0.1205258   -0.4869440   -0.5022219    0.8775397    0.2808094   -0.1139472   -0.5164111   -0.2910325    0.4025591    0.8610992   -0.6908320    0.0447825   -0.0721208    0.7822799    0.4454464    0.8631217   -0.9442721    0.1891628    0.2782731    0.5322684    0.3924651   -1.0330140   -0.1366457    0.8267641    0.2768232    0.1900627   -1.3401327   -0.0452163    1.7147742   -0.8959644    0.8218803   -0.3397469   -0.3890339    0.6384460    0.0404791    1.2222357   -0.4015790   -0.3214383    0.4084495   -1.0229078    0.7936371    0.0707095   -0.6476482   -0.0914092   -0.4409588    0.1058378    0.2193003    1.0463727    1.5142357   -0.1020407   -0.3782707   -0.6696309    0.1700098    0.3706496   -0.4521981    0.0290890    0.3235635   -0.2635761   -0.5455287   -0.2983028   -0.7011673    0.3083323   -0.4301620    0.1869970   -0.8757307   -0.2188418   -0.0689036   -0.7127396    1.3989562   -0.5806004   -0.2236098    0.2083208   -0.4237826    0.9794006    0.8488126   -0.1680794   -1.1823043   -0.0344065    0.0426922   -0.3462285   -0.2790587   -0.0950354   -0.0913584   -1.3059515    1.0580777   -0.7075526   -0.0570104    0.8101789   -0.1314315   -0.7506261    0.3938712   -0.4457183   -0.6216437    0.6833822   -0.2091602    0.3014224   -0.4976172    0.5648963   -0.1201797    1.3045749   -0.4641763    0.5308021    0.6520760   -0.6518779    0.1295290   -0.0676650    0.4319452   -0.7663374    1.5974030    0.3635562   -0.0013528   -0.6403128    1.6524356   -0.8920826    0.2056027 
  -1.1707090   -0.4481823    0.1900124   -0.1648550    0.5675124   -0.3554352   -0.1161469    0.2224625    0.0317482   -1.0609052    0.8546669    0.5737333    0.6495238   -0.3788288   -1.2639421   -0.2195698    1.5149392    0.3627018    0.6142042   -0.7075342   -0.5896571   -0.8585129   -0.0943388    0.5591870    0.4073503    0.1436511    0.3274680   -0.0263240    0.1465411    0.0661591    1.1028294   -0.2273930   -0.3061854    0.2794845   -0.2563502    0.3833764   -0.8154680   -0.4672055    0.4566640   -0.8127840    0.5417214   -0.7904095    0.2850780    0.1297576   -0.0150126   -0.5317515    0.2490267   -0.1851440    0.1430928    0.2388079    1.4864485    1.5764664    0.6550485    1.2362318    0.3720098   -0.2650857   -0.3729807   -0.4916110   -0.7090746   -0.3174359    1.2978366    0.5055260   -0.1294220   -0.1502194    0.4544262    0.2404971   -0.0301113   -0.0323543    0.3475539    0.8801600    0.2373010   -0.3440986   -0.5587336   -0.7248272    0.7959534    0.4795695   -0.4550595    0.5774402    0.4369108   -0.5029407   -0.0291593    0.4065988    1.2528269   -1.4550799    0.5910835   -0.6853618    0.2514133    0.0839101   -0.4592593    1.0365248    0.4425967   -1.3755382   -1.0562738   -0.9802732    0.2983179   -0.3678374    0.3343405   -0.8007974   -1.5345280    0.3598056   -0.6611182    0.9215685    1.8222779   -0.9113406    0.3386319   -0.6212317    0.7679467    0.7307403   -0.4218244    0.6070836   -1.7882089   -0.7007657    0.3835045   -1.1973965   -0.5836181   -0.8006496   -0.3810885   -0.4583262    1.0477776   -0.8531756    0.0058198    1.8138424   -1.4753898   -0.0954814   -0.2381434   -0.8703205    2.4639978   -0.4957065    0.9607891   -0.6189434   -0.0880116    0.7004955   -0.8731912   -0.9921969   -0.6639620   -0.4046982   -0.2088692   -0.2755765   -0.7577656   -0.5183145   -0.4649697   -0.6367960   -0.0246151   -0.5243973    0.1625621   -0.3308341    0.2306371    0.9397312    0.2994973   -0.0141907   -0.6624932   -0.3965266    1.0632042    0.0489559    0.6052960   -1.4638972   -0.3096207    0.3832981   -0.3377762   -0.5100926    0.6091964    0.4286571    0.5145895   -0.9483809   -0.0004191    0.3866053   -0.2007680   -1.2472974   -0.3952351    0.1746439   -0.4794955    0.8435744    1.0018555    1.3682086   -0.9970641    0.4613687    0.4279744    0.8433602   -1.1092229    0.4741434    0.4500836    0.0227575   -1.1509365    0.1342423   -0.9400576    1.6972466   -1.0867360    0.3582361    0.4037037    0.2808373   -1.0343926   -0.2617304   -0.6280844    0.6823890   -0.1663336    1.1888247   -0.2324158    0.1186454   -1.7522078   -0.3441792    0.8815091   -0.0598574    0.0161424   -0.0434744   -0.0554919   -0.0051155   -0.4257596   -0.8929658    0.7698224   -0.3598684   -0.1852453   -0.4836467   -0.4877269    0.2800652   -0.3119276   -0.2911821    0.0724120    0.5316314   -0.1433962    0.0423875   -0.4409756    0.3399987   -0.0294998   -0.1775788   -0.7252565    1.0000542   -1.1672910    0.9966307    0.3875990    0.7509624   -0.3370060   -0.5519800    0.1005393    2.2264011    0.0918852   -0.3094211    0.1142258   -0.3187152   -0.3110228    0.2027100    0.0677184   -0.0259933    1.0761581    0.7168446    0.4619963    0.2499833   -0.3953223   -0.2769230   -0.3726967    0.3434648   -0.5088782   -0.1942655    1.1324610    0.7213955   -0.0646003   -0.2039319    0.4443193    0.6696817   -0.5462570   -0.0792778    0.2635870   -0.9292646   -0.0989628   -0.3196452   -0.7996504   -0.4063331    0.3338758    1.0499341   -0.3663124   -0.1774470    0.0665965    0.9157447    1.1870897   -0.1300936    0.5727393   -0.4380211    0.7328230    1.0383861   -0.3634603   -0.6706849   -0.0016479    1.0337228    1.1597563    0.7148656   -0.7902749   -0.6922985   -0.5232460   -0.2410053   -0.4656392    0.9525721   -0.6763400   -0.6361904   -1.1060354   -2.6619050   -0.4658718    0.2289754   -0.8003557    0.4553250    1.3595536    0.2169415   -0.2514571   -0.3145106    0.3542545    0.4122011   -0.1216857   -0.0331556   -1.2693531    1.2120825   -0.5054501   -1.2419645    1.1353366    0.3705278   -0.0581341    2.0555832   -1.0801004    0.6686546   -0.9876780   -0.2748762   -0.0327642   -0.9038898   -1.5065228    0.3246102    0.0661290    0.4495331   -0.0414965   -1.4904919    0.2643381    0.2691647   -0.0580434    0.9572552    0.7861363   -1.0768466   -0.5010823   -0.5917442   -1.0202489    0.4839668   -0.1036786   -0.2041208    0.3350768   -0.0957818   -1.2052564   -0.1392587    0.3894871   -0.5007245   -0.5321611   -0.6613235   -0.6513790   -0.6536310    0.1842257   -0.3338016   -0.0191582    0.3610600    0.8943520    1.2449308    0.3441829    0.0001208   -0.3650518    0.5756175   -0.5709872    1.4964482   -0.6178323   -1.0157101   -0.6379650    0.4394460    0.6391476   -1.1029564   -0.0096432   -0.7102208    0.6354814   -0.1629028    0.2059483   -0.2209679    1.8360849    0.0263226   -2.1954844    0.7009320    0.0405360   -0.5337017   -0.1123058    0.1300585   -0.1483259   -0.7665468   -0.5887207    0.7543723   -0.1578215    0.3497941    0.2003219   -0.1786454    0.5330636    0.2614208    0.6370862   -0.4320789    0.2453149   -0.9107375    0.6574211    1.9019881   -0.1376030    0.2220551    0.8840906    0.3860546    0.0105801   -0.5202070    3.7229384    1.1789727   -0.9443853   -0.5935806   -0.6640280    0.8834483   -0.4562579   -0.0212408   -0.0722338   -0.7954888    0.0298035   -0.1854977   -0.2252454   -0.2600488   -0.4235424    0.1479771   -1.2929319   -0.3845104   -0.2044037    0.1420960    0.2309186    0.0046699    0.6792968    1.6847692    0.6433829    0.5964552   -0.3445010    2.7246216   -0.1498543    0.1755779   -0.3585900    0.7583465    0.4574928    0.4109200    0.0477976    0.1514196   -2.6047016   -0.3563726    0.4521072   -0.9076284    0.0413386    0.5295184   -0.1377007   -0.1955695   -0.1785577    0.7818262    0.1747516   -0.3164343   -0.4265930    0.3122061    0.3849091   -0.1636588    0.4327704    1.3944387   -0.0047420    0.2756717    0.0122748   -1.5726712   -0.2870620    1.1932294    0.2598337   -0.1738278   -0.6491737   -0.1106709    0.9603618   -0.6220251    0.4891630   -0.1738150   -0.5617946   -1.0583300    0.2242584    0.0288044    0.8671906    1.2638306    0.7054968   -0.0257993   -0.3295014    0.1993544   -0.3405593    0.7599453    0.2724510   -1.9896204   -0.6420129   -0.1079379 