-190470.8778804
-190472.5577942
-190472.5777226
-190473.0492913
-190474.7441164
-190474.4368289
-190473.9159642
-190473.4500025
-190474.3094033
-190474.8810666
-190475.2845187
-190475.3707445
-190474.0191190
-190473.7212845
-190474.8174571
-190474.1264915
-190473.7777974
-190475.8919791
-190474.0206316
-190474.7478832
-190474.6952939
-190473.9561236
-190474.3643405
-190476.1620702
-190474.0331827
-190475.5877641
-190475.2497639
-190473.5085375
-190475.8762456
-190476.3717391
-190476.0698197
-190472.7305831
-190475.0155544
-190475.8114128
-190476.2438752
-190477.7704712
-190477.9200577
-190477.6917402
-190476.6911627
-190476.4313186
-190476.5243213
-190477.6571325
-190477.0085351
-190478.0401384
-190476.2978291
-190475.5059315
-190476.6700510
-190477.2675181
-190476.1003720
-190477.5369483
-190478.2631154
-190478.4368554
-190479.9697198
-190478.4589236
-190478.1897730
-190478.6936915
-190478.3271102
-190478.3347813
-190478.4489224
-190479.4710615
-190478.9578155
-190477.9571330
-190478.4165094
-190478.3904021
-190477.2879592
-190478.5733762
-190479.3570482
-190480.2929608
-190479.8593659
-190479.8618382
-190470.8778212
-190471.4357687
-190471.3748140
-190473.5355297
-190475.0441860
-190473.8922698
-190475.5077353
-190473.8320779
-190475.9192866
-190474.4044907
-190474.6844147
-190473.1395571
-190472.9892482
-190473.2130775
-190473.3611547
-190474.7388580
-190474.0638993
-190475.0186613
-190473.7316170
-190474.5031076
-190476.3747355
-190475.1456364
-190474.9337260
-190475.9240951
-190475.6706008
-190475.5845511
-190474.4544653
-190475.1572383
-190474.5414567
-190473.6038622
-190473.9953078
-190473.1699410
-190474.0088365
-190474.6110578
-190476.4660368
-190475.8736306
-190474.7231616
-190474.6128618
-190475.9814436
-190476.4884076
-190474.6300784
-190475.0145544
-190475.4055667
-190474.9878579
-190473.6620055
-190473.8703744
-190474.1130231
-190474.7843298
-190475.0540271
-190475.1087048
-190475.7308117
-190476.2213493
-190476.2908993
-190476.7182427
-190475.3876782
-190475.6107285
-190475.8305298
-190474.8517330
-190475.3795468
-190475.3554502
-190474.3815071
-190473.5290151
-190474.5175966
-190475.6176745
-190475.4462926
-190475.5736936
-190475.8697616
-190475.5645200
-190475.8479852
-190475.1678246
-190474.3076522
-190475.8345383
-190475.0595271
-190475.5679058
-190474.4631532
-190474.5648495
-190475.2320701
-190475.9952629
-190474.1362860
-190475.8580281
-190475.8884154
-190475.9536853
-190476.2757406
-190476.6482144
-190477.6277720
-190477.0160178
-190477.6358625
-190477.9961622
-190477.5939962
-190476.3829496
-190476.4696660
-190477.4448696
-190476.6601200
-190476.4606499
-190475.6152208
-190475.6119385
-190477.1365206
-190476.8429544
-190476.5106048
-190477.3949152
-190476.6692862
-190477.5246350
-190477.5314901
-190477.3217890
-190478.2247079
-190478.7864594
-190477.1391432
-190476.4919211
-190476.8534894
-190476.7203536
-190477.4916597
-190476.5182928
-190477.2729935
-190476.2010905
-190476.0096118
-190477.1793154
-190477.8073823
-190477.3118369
-190476.7591900
-190477.9311818
-190478.1798202
-190478.0554391
-190478.3570911
-190479.4382925
-190477.3660904
-190478.0910237
-190478.6997394
-190478.9112169
-190479.3790486
-190479.9272259
-190480.0328342
-190479.2252671
-190478.5697966
-190478.5017823
-190479.2446819
-190478.3569668
-190477.0021874
-190477.4825111
-190477.5726199
-190477.5476899
-190478.0995998
-190479.0864480
-190478.3385710
-190479.2146999
-190478.7911941
-190479.9597873
-190478.9289240
-190479.2034375
-190478.8796071
-190478.5042053
-190478.2840857
-190477.3680244
-190477.8262123
-190477.9091502
-190477.7988709
-190478.6573147
-190477.6600855
-190478.2503175
-190479.3400544
-190478.9467303
-190479.5326700
-190479.8270000
-190479.9293775
-190479.2409635
-190480.3210798
-190478.2748566
-190478.5378777
-190477.4408620
-190477.8679889
-190477.3122688
-190478.9429995
-190478.4571807
-190479.6815891
-190478.6665918
-190479.8842963
-190480.8437198
-190478.5596052
-190478.9284636
-190478.6735162
-190480.1819415
-190479.6196065
-190479.4831876
-190479.5705106
-190478.2440300
-190477.0749459
-190476.1628104
-190477.0362514
-190475.7171254
-190474.7809912
-190472.9699226
-190474.1483744
-190474.4080680
-190475.0691118
-190475.2664551
-190474.9685235
-190475.5683933
-190476.4950134
-190476.7155411
-190475.4930750
-190476.0026814
-190477.7198894
-190477.0010473
-190475.0494336
-190476.3372996
-190475.2908884
-190474.8252217
-190475.0349813
-190472.8268183
-190473.9669000
-190475.9920951
-190474.2616935
-190476.0460655
-190474.6492583
-190475.1632591
-190474.9215771
-190473.0463088
-190476.3949959
-190477.6200576
-190474.5276577
-190474.2438075
-190474.1153674
-190475.2450043
-190476.6257619
-190474.7061331
-190475.8360806
-190475.2196272
-190475.2605470
-190476.1901970
-190475.5368285
-190474.4527733
-190474.5081753
-190474.1110235
-190474.0725668
-190474.4961001
-190472.8656551
-190472.7339831
-190473.7319628
-190473.4047057
-190475.0690645
-190476.7101206
-190475.7916290
-190474.7973201
-190474.8478559
-190472.9673521
-190472.5980023
-190474.8096791
-190474.4746027
-190465.4283360
-190465.1122028
-190465.4304928
-190464.9142272
-190463.4405306
-190463.5179873
-190466.9961735
-190464.2671475
-190463.3867076
-190464.0036007
-190463.6454462
-190463.1267501
-190462.4211299
-190466.3973809
-190464.6277984
-190465.0063281
-190464.3795087
-190464.9636397
-190463.4863768
-190464.0050138
-190464.7819947
-190479.2238275
-190475.2841314
-190473.2244108
-190473.9958297
-190473.1173835
-190474.2851084
-190474.9087663
-190474.2487659
-190475.7140863
-190477.3435579
-190475.7306727
-190474.5673774
-190475.0482214
-190476.0603584
-190475.5400176
-190475.1140118
-190474.8494486
-190474.8403546
-190473.8516930
-190473.6639219
-190475.7057421
-190475.8598089
-190475.3432737
-190474.8973728
-190474.9788276
-190474.9365765
-190476.8549699
-190475.6512654
-190475.2082420
-190476.8870014
-190475.1549282
-190473.7144091
-190474.7728052
-190475.0483622
-190475.3508649
-190476.1235067
-190477.0092774
-190476.4790068
-190475.9910957
-190475.8563403
-190475.5988178
-190475.9873068
-190475.5137512
-190474.0877095
-190476.1595446
-190476.0261623
-190477.0757399
-190476.8960615
-190477.6036366
-190475.3347848
-190478.1663757
-190477.1190633
-190477.4683901
-190475.3030649
-190474.5258783
-190476.3876038
-190476.4736724
-190475.7115823
-190474.5085381
-190475.9663822
-190476.4925237
-190475.2569048
-190475.4286051
-190477.1611705
-190475.0718695
-190474.2886332
-190476.7077244
-190478.3403555
-190475.5550437
-190476.8848559
-190477.1559653
-190475.7981444
-190478.0980116
-190475.4269526
-190477.0783103
-190476.1898340
-190476.6036989
-190475.3053213
-190476.4629696
-190473.8609260
-190477.0919861
-190476.6324828
-190475.5387446
-190478.1281280
-190476.7152428
-190478.9411482
-190474.8945831
-190477.6746287
-190477.3273573
-190479.2841931
-190477.9593164
-190477.6530631
-190477.7705422
-190476.7659104
-190478.9908178
-190476.6983316
-190478.6305889
-190477.1720549
-190479.5850540
-190477.1732909
-190477.6712539
-190475.9503416
-190476.7464236
-190475.8587252
-190476.0952505
-190476.8269395
-190477.0906724
-190475.6932950
-190478.2569468
-190476.7633965
-190477.5842863
-190477.8968029
-190479.1521437
-190477.9739935
-190478.3263300
-190477.8277549
-190477.8436564
-190478.7209136
-190477.1161053
-190477.2903564
-190479.2215260
-190477.6193052
-190478.7457202
-190478.3343339
-190478.2637646
-190476.4641545
-190476.2646732
-190480.3996770
-190476.3330863
-190477.8571651
-190478.1540186
-190476.8757217
-190475.0182152
-190477.5537939
-190474.9941261
-190478.0958987
-190477.4871572
-190478.0381723
-190476.0077553
-190475.6800198
-190476.0506830
-190479.1885378
-190477.0378094
-190478.5295159
-190476.4593861
-190476.3457665
-190476.6993416
-190477.7304069
-190477.9382493
-190479.1422222
-190478.7024839
-190477.3049005
-190479.7898664
-190477.2868845
-190477.2381383
-190478.0569066
-190478.5279028
-190477.3652292
-190477.4172014
-190475.7021719
-190476.9017014
-190478.0807974
-190477.5012486
-190478.0098064
-190476.7271076
-190475.2261644
-190479.2238275
-190459.6936409
-190455.3326211
-190458.8731963
-190456.4334151
-190459.3029458
-190460.8382856
-190456.6197443
-190456.2001132
-190457.1030831
-190459.8507546
-190459.5425024
-190459.1845339
-190459.0896539
-190461.3107162
-190458.1333783
-190458.8492784
-190458.4289080
-190459.8545505
-190460.4624241
-190462.1402684
-190457.2307648
-190460.4500182
-190458.8356196
-190461.1217619
-190461.2604893
-190459.6233600
-190459.8367272
-190459.9168186
-190461.0751169
-190461.0188597
-190460.8386932
-190460.6779277
-190458.8991230
-190462.0782998
-190460.1952260
-190456.7495077
-190456.5663881
-190456.7931956
-190455.6331227
-190458.7945126
-190456.1423086
-190457.3098393
-190452.5123524
-190456.1984545
-190453.2185617
-190456.1378308
-190459.4268174
-190469.2617524
-190467.1838842
-190470.9344405
-190470.8581577
-190471.0025192
-190468.4999507
-190468.2768389
-190469.1855134
-190470.0248638
-190469.9030561
-190469.6621398
-190470.5704791
-190470.2582753
-190468.8768388
-190472.1309982
-190469.8802419
-190470.7620354
-190469.8283135
-190470.2403513
-190469.4802661
-190469.3058592
-190470.1835554
-190468.8876058
-190469.5244151
-190469.1465466
-190468.0492124
-190468.3559889
-190467.9996800
-190472.1501748
-190466.7991341
-190469.0096919
-190469.7060225
-190471.5015219
-190471.3945322
-190469.5004498
-190470.0278456
-190470.4283487
-190469.2554377
-190468.5783400
-190471.5212967
-190470.2444361
-190468.1974900
-190468.6229022
-190467.9566965
-190467.3087561
-190471.2844255
-190470.7874518
-190468.6466031
-190469.7008505
-190469.2304096
-190468.2374267
-190467.7185203
-190467.3457190
-190468.6335468
-190470.3245049
-190470.4352711
-190469.6602269
-190468.3351707
-190468.4602656
-190469.7757393
-190470.6934271
-190470.4316897
-190469.9791564
-190470.0927706
-190470.7097935
-190470.5201603
-190469.8904625
-190467.7137508
-190470.1469438
-190469.7324025
-190472.7313779
-190471.0592390
-190469.1542485
-190470.7076143
-190471.6706887
-190468.8359373
-190470.9436253
-190469.4062001
-190468.6130956
-190470.8410091
-190468.3729188
-190469.9008318
-190473.1427899
-190470.7587413
-190470.1465272
-190470.4715629
-190471.8764493
-190469.6623331
-190469.8442142
-190470.8830505
-190469.2044961
-190469.3344946
-190468.6953059
-190471.2360881
-190469.4777701
-190470.1121516
-190470.6141711
-190472.0380092
-190471.9589524
-190469.3446403
-190469.9052443
-190471.6016707
-190468.0101877
-190469.7920007
-190469.9922332
-190468.9201568
-190469.0825026
-190469.1040957
-190470.5016529
-190469.6356960
-190466.0204716
-190470.0757514
-190469.7932314
-190471.9645740
-190468.5372186
-190470.1827439
-190469.1481497
-190466.4432169
-190468.1062718
-190470.7388521
-190470.7028243
-190468.9797887
-190472.7287639
-190468.8868232
-190470.5334628
-190467.2279290
-190468.7128266
-190469.7704395
-190468.7387124
-190468.9612555
-190471.4575027
-190471.1276091
-190470.8820380
-190470.1879736
-190470.9597451
-190471.8050035
-190471.1155460
-190472.4081165
-190471.9733961
-190470.2199256
-190472.3479233
-190470.1914305
-190469.5567910
-190468.5748030
-190468.5951610
-190469.0456550
-190468.4801402
-190470.2825892
-190468.4451781
-190470.7603715
-190469.6662364
-190470.5659796
-190471.0953252
-190469.9814531
-190470.7388584
-190471.9037865
-190470.7566641
-190469.8054366
-190470.4309261
-190468.1608582
-190470.8569411
-190472.9231468
-190473.0947217
-190471.2385526
-190471.0245066
-190471.2408721
-190470.3889147
-190472.4675453
-190470.7583368
-190471.6996293
-190470.7361626
-190469.9876131
-190475.1234628
-190469.8924237
-190470.4222439
-190469.9275414
-190469.8665677
-190470.9283051
-190470.3239378
-190469.6398252
-190469.0315840
-190471.9542769
-190470.3884485
-190470.2463028
-190473.4026598
-190469.9989380
-190469.0716531
-190470.5468298
