7.1945872048 4.5671121373 1.6481825566 8.1115418842 3.7352232231 3.0165077020 2.6508162955 11.6946119820 0.6396690802 1.7301665642 10.1359241292 1.2049814927 7.3357098083 9.5696033638 2.6796503536 13.9243179963 5.9062152902 2.7913615741 3.3763155616 13.0693205305 1.7693816316 13.1225708069 12.6898796159 1.9752069829 10.6498388502 7.0978698039 2.1737979153 13.7146108314 11.1169381100 1.4282772014 6.1843380554 1.4027926066 2.2350361547 6.6177064116 10.0693260646 0.9923175966 8.1227409600 13.2557921460 1.4348116507 10.8527520868 10.7080511217 2.5370299219 0.4197389693 8.1970500160 1.4301072279 6.6040196363 13.1718982614 2.3637503537 5.1822158283 12.6033744870 1.1551340701 4.8229709386 10.6058124792 1.3830457893 13.2535947905 0.5155960910 0.7765282088 3.4649574226 9.1899837987 1.1640583114 9.1810124761 5.1820173291 3.4637784578 7.8564467463 7.8451827998 2.4102325309 5.3697132944 4.9319515881 1.5547451782 11.2663004802 12.3832336443 1.9033867932 9.1812695910 10.2545509060 2.4913901990 9.6271649172 0.5107043045 2.1251825487 0.5280855063 3.4073895100 1.0062514147 6.2653807491 11.3061234603 3.0471156045 8.9642776187 2.2005964972 2.2629773447 1.0633855541 2.1479846453 2.9944078498 0.1626105149 3.9844983791 2.9486158252 11.9685582624 8.0677403458 1.3373682934 4.7468130225 6.4628758660 0.7710640793 11.1432501775 9.5533345694 0.8043423857 5.0098240970 2.1686545663 3.3440652249 2.8402559059 7.2981848316 2.9951869191 1.2131040570 1.5233977274 1.1875294443 11.3953836776 11.1392185273 4.4078590203 3.8095411664 0.7021009584 3.4275317239 9.2977218587 7.0587570170 3.3053080353 4.4276600734 3.5217660365 2.2573751796 12.0608229949 9.1980212076 3.1999456435 4.4133013551 7.5947674273 2.2081543910 3.0209905570 0.9591605079 0.7085393785 5.3928127155 9.1262194788 2.9078177037 1.0728921760 7.5633510319 3.0136052095 10.0089305486 -0.0209184721 3.8296752303 1.5555826901 9.8385059899 3.0754205090 12.2106962895 3.4621751401 3.5219011000 2.2022719328 12.8156085601 4.7056756244 6.7652701057 3.3783239846 4.2155057759 1.4541461023 13.4943651494 2.4371815334 5.2398799345 5.4868140895 5.0632333483 3.7614315016 4.1809085561 4.7003079821 9.6185194131 8.2285257989 4.7236229697 3.6882709864 11.3592461506 2.9748350628 7.2958564427 -0.2524314411 4.0054032950 12.5518161688 9.7257866414 4.8765379089 13.0524884805 13.1328244831 3.8767552141 0.8998927078 4.3323954925 4.7713904207 3.8481319606 0.3155184528 5.4710786574 1.1619475644 0.6705912472 4.2577194706 5.2623085237 10.5796258662 4.6063651569 14.0593011507 7.9616705359 4.7519247417 5.2160152851 6.0681083554 3.1937297739 7.0555811334 9.6357538777 4.7153302775 2.3682975642 10.9133699092 4.3500376815 8.7040408891 -0.2733185473 5.0337339904 2.4107679389 1.6705641420 5.5528367574 2.3694207067 3.6631285939 5.6811222950 12.5068020943 3.6997446600 5.4550193908 5.2907939363 1.5391341363 5.1906637002 3.6361331520 9.5909335295 4.8323151504 0.6923014448 10.5330954662 5.3483378565 7.0188587609 5.9757851200 5.2905038536 12.1531930785 12.6112092884 5.4979190043 10.8060499954 13.5442364439 6.2252565155 8.5689921439 9.3655535800 5.7424714851 11.7938510897 5.3332809526 5.4098022312 -0.1737084933 1.6606410488 5.4114325963 8.5774659343 1.3550468770 5.9478769061 11.9889078398 8.5601041335 6.2751946741 0.0908710177 13.0813080345 6.7874875841 7.6186485021 8.3822700606 6.8508169371 4.1308461575 8.5137033068 6.6009724275 0.5966055381 7.8806557354 6.5896604038 9.6145949390 6.3326772105 6.8351613933 2.3019411026 8.0172461639 6.7901393166 11.0001713558 2.9507770699 6.0824614832 9.6100237901 10.1327859888 7.2850739916 2.6213992983 11.3403136284 6.7890977628 2.9561169103 4.0912459811 7.3475853663 4.6516047744 12.2143200443 5.2701313925 12.3133784590 11.0956841234 6.5555253667 7.8106588028 6.4664101468 6.8489231568 7.1014465209 2.8075616888 6.2309896028 11.3973814958 6.4047470279 7.0379430579 0.8645368464 11.3298071572 7.2000795181 10.3758762926 1.6679741886 7.0915288353 13.4655827331 6.3819859468 7.2498486809 4.6483458421 6.8356456162 6.0146263634 13.7212527999 3.5180680073 7.1195152045 13.6740001831 1.3439223908 7.2895789799 11.2646498656 9.7259919949 7.7974198581 8.3715510768 11.7246785746 5.9635089468 8.2485013316 3.8338401242 7.1513634041 4.3966831845 11.7098905170 7.4190187164 5.6424910142 4.2001085692 6.5636167895 0.1173247116 9.3661013396 7.8464821249 1.5245305842 1.6018296111 8.3550977559 4.5911399201 4.1134927181 8.2733814844 4.3767202719 8.2083105028 8.3378429741 11.5737075814 5.1789738249 8.4076891114 8.0298539408 11.8341912840 7.8203534080 11.0536022911 7.9323256154 8.4273330282 13.3968097469 4.7310327519 8.4562646408 6.2827599274 12.6109787662 7.7501678982 1.1084269170 11.4081216738 9.2237247205 8.9869401925 13.0654160412 8.5846564611 4.0867048640 13.6687878095 7.3637039611 6.3163302693 4.1441905819 9.4961028307 9.5806210043 2.0420460885 8.6582779604 8.0544988970 3.1864367196 9.0939441014 1.1174777666 5.6074775450 9.4023391892 2.6651795725 1.6078545033 9.7192053817 12.1162814733 1.4509589801 8.1844488985 7.6600074402 10.9476081526 9.4278449805 5.3538863387 10.2019161135 6.6198121427 4.1191700040 11.3421078715 9.1413105727 4.3249476928 2.3409358405 9.1500171144 13.8543250012 8.0996347924 10.3993480669 7.4449421051 11.2740298618 11.1602526128 9.0663110389 0.4857176453 10.3085117292 13.5935524145 9.8233207755 9.7619168805 4.3764312227 7.2100608186 9.9842875696 2.8432825762 -0.0444304478 10.2842707673 13.0999887651 3.3105675829 9.9387904736 5.7413767608 6.5734461627 10.9748399574 6.7045790510 1.9073633433 7.9303319518 1.1723927453 12.2520173354 10.9395366813 13.7024878215 13.7844073009 10.2888544750 7.2252427675 5.6924476952 10.1375919788 2.1130837852 2.9213969780 10.8836908072 4.2590732107 12.3237452640 10.9916327638 8.8325288899 4.4981394360 9.9050475056 -0.0418319843 10.9752036450 11.3561649930 1.1610419763 6.6417854488 10.9367956818 4.0872976351 5.5549579176 9.1816136273 8.2975277816 12.7803425519 11.5498246153 10.8039383457 0.7821175114 10.8409840556 7.0736668538 6.3932258401 8.5091047012 0.5314812419 3.5167741394 11.6134697473 5.4860050430 0.6269913780 8.5214156524 2.7508244438 11.4087980081 11.5406758255 5.6470621762 11.3925321514 11.7502614523 5.5615430724 13.5907076902 10.1346441694 0.2193830343 5.3747007357 11.9922660442 11.7832514668 10.2847100037 9.5634476964 2.9058191973 7.1461328479 11.1297197336 7.9449531286 1.7656338340 10.4586176514 13.1292027332 2.0162749843 12.1506603329 12.4789101583 1.4422154701 10.3380114410 1.5446774246 3.5578345991 13.6032893251 1.0447301217 1.7811997943 28.6339543704 1.0192803215 13.0068543975 12.9699142576 1.6965927755 13.2136908323 27.1839035079 12.2963185494 5.9788205231 13.9710974516 8.6855493211 4.1987267259 28.8598339365 8.3149981481 9.9662063075 12.0681973524 10.8520649622 14.9797593727 30.5854757542 2.0359282120 2.7073848441 13.7449322041 0.2267945049 2.1426770908 28.2566452944 0.4888376395 13.8199215725 13.0934362120 0.8567464806 13.0539461259 26.6944816304 12.9424464285 6.0215254265 13.1756607049 8.8130972956 4.4794668083 27.9397131466 8.2294273781 8.3371874998 10.0120281586 11.8041339962 14.8065729879 30.3058760390 -1.3726280887 1.9908237116 13.4079037756 1.0881303342 0.8760909248 28.2841709442 0.8287420761 12.4409179129 13.7567733162 2.3024139832 13.6647287851 26.5518927168 11.7908709000 6.7779601963 14.1578767320 8.2442417761 3.3298291689 28.9042258290 8.0911082545 9.8452551425 13.0708080941 10.7109683631 16.0233376783 30.5975411985 1.4634780338 6.5394457209 21.4058718449 1.7236285446 14.4652744465 16.9186672264 9.7920811486 2.3878301447 20.4943928429 11.2387934564 10.9054556266 23.8520399090 0.8252659985 5.7310049936 21.2272716738 1.1795071967 15.2766599619 17.2285488240 8.7836265897 2.3439565799 20.2716189718 10.9457230016 10.5551614622 24.7700967209 2.1807424755 7.0171553395 19.9832017135 0.9271387752 13.8154508659 16.9045964258 10.2028263791 2.0296016436 19.6972907926 12.2225420475 10.9958505395 24.0817967765 2.3899049266 7.1305261102 19.0380817936 8.9429648062 7.0149960465 21.2133755166 3.0858875597 7.8192222781 18.9138893178 9.5250628646 6.3312056227 20.7841389809 2.6555940373 6.0463060631 17.4470150742 9.3292556230 7.9138140429 21.4257462012 3.1492022649 4.0216061009 26.8131677881 9.7580645173 1.9870311389 25.5997182897 2.3162336996 4.5185350720 26.6473446508 10.6292906888 2.3128220563 25.9238249384 3.2020074963 3.5078265363 26.0061730546 9.7251829585 2.3994156696 24.7469069888 -0.7332636106 8.1672765640 21.4944165209 10.4620091072 5.1720266354 20.1229805772 -0.4702608706 9.1415943906 21.4565658242 10.6698494944 5.3869121863 19.1969871480 0.0625552772 7.6580788076 21.6478542403 10.2488952478 4.1339153676 20.1538876094 4.8542841688 5.9667448908 21.4984077357 10.6793534962 7.6580215682 23.7530031858 4.6423948109 4.9481694715 21.5446109843 10.7490446279 6.8087986996 23.2681329892 6.1108847700 6.4543713894 22.5359133766 9.9974585749 4.2417844884 13.6583010120 5.4434420854 4.1508762150 29.4676332082 10.6845327463 4.8664624317 13.7098343566 5.7908004790 4.5193662985 28.5125561105 10.3872517129 3.3359351915 13.8079865429 5.0144057943 3.2307821207 29.1453604503 5.7481701821 8.0944086514 13.5334622364 5.6433207552 7.5128218798 12.6755573207 4.8252052689 8.3355135477 13.6170573259 7.4263550924 5.8800952880 25.1308425626 7.1447345926 6.2088287202 24.1450507217 7.5423101391 6.8122030876 25.4449547312 2.3721837302 5.2975771192 16.8849129663 1.7986117575 11.0532169887 17.4789919345 10.6339269317 -1.3537982751 19.3509306398 7.4101983406 10.9635556819 21.0568334663 2.6402750969 5.4425478555 15.9831759455 2.2921266524 11.4143321866 18.2019841102 10.5654518978 -0.3785077576 18.9833520006 8.6136939712 7.7606507320 19.5197498704 2.6385211542 6.5929171613 13.7579430922 1.2598451506 10.2190034457 17.6816385584 10.6113596734 -1.1630140873 20.3088557285 8.3253696985 10.6524159567 21.1365948323 6.3881362443 5.8976776806 14.8306474201 4.0101962152 2.2355289816 28.4625462511 10.8645885052 8.5049408150 14.7504330768 9.5451870525 3.2539545487 23.0536317801 6.2326112005 6.7827994606 14.4441008768 3.6229962358 1.6198225019 29.1584344487 10.5991516138 8.6616489761 13.8192733053 9.7084506399 2.7442125477 22.2632020862 5.5336016502 5.3558178390 14.7538593022 3.3181179093 2.7802088967 28.0145261185 10.0811914575 8.5138172829 15.3907135028 8.5606292364 3.3957691151 23.0353652811 -0.9384440562 2.5614953060 16.8597095465 3.3419816531 13.1031512058 18.6634661068 12.5908712272 -0.3649722401 16.6007432025 14.0024262111 8.7604584946 17.7355615706 4.2649031313 12.7894614601 18.6385680508 14.5905908574 8.2602569227 18.2854100050 -1.3311538244 2.2240251256 16.0138670766 3.0297341037 13.1476998962 17.7334468842 12.6280675442 -0.9884416694 15.8525628787 6.9406458955 10.4515112842 21.8511988125 9.5355932993 5.1423368727 26.2726102521 9.7066948136 6.0871522995 26.6844909948 8.7308236403 5.3211649361 25.6554240643 5.3388637044 1.4176974177 15.5134365855 5.9552029596 1.7710100930 14.7767093146 5.4958443347 1.9920357320 16.2965480608 7.2571969725 2.0323470825 20.2827063872 5.9087280168 12.4038105077 19.4680066029 7.3250899435 1.1481385866 19.8319881802 6.5057205561 11.7977730726 20.0514316022 6.7079585124 2.4286229073 19.5770018265 6.5565062970 12.9852739447 18.9477017995 2.8947658044 -3.2535754435 24.7609603046 8.1670815246 8.5824798694 25.0524604239 9.0695129493 8.3328205471 24.7641959038 3.6641170790 -2.6360021140 24.5939112878 8.4587166523 9.2813585035 25.6754762879 -1.8707342376 1.9409772604 14.3056460908 -0.4161643260 4.8426830562 28.6996722964 0.4002186034 11.6960544435 15.0156618529 -1.8689963576 13.5963526297 27.6267747721 9.3467568620 0.4002801965 14.3881463869 7.2975241693 1.2119180847 29.0927409807 7.2882479905 9.9828758237 14.6708970491 2.8021759410 10.8458056934 27.4088916132 -0.9293455748 3.5556998685 16.7087109110 0.3645149895 5.2203960827 28.3994482066 -2.5060358816 14.8341486023 14.0973944811 -1.7701347819 14.5712170819 27.8779815200 9.7393913405 -0.5280880528 14.4188634210 6.8188511388 1.4789832291 28.2576321624 6.9196682861 10.8630407044 14.7107798849 2.3457212667 11.7566009775 27.3800281434 8.6519695898 0.2823532352 13.7081188776 6.5932195457 1.2331693799 29.7379078236 6.6507563934 9.3258738295 14.2871623798 2.8951213284 10.5604910686 26.4787748477 6.2416533632 2.0377607689 12.7927274648 6.1878381192 5.7052149691 18.8107211253 6.8577416085 1.9213978625 11.9985063534 5.6464356662 6.1849239419 18.1986592506 5.7225242371 2.8927583488 12.5099087215 6.9835440755 6.2805783170 19.0332451905 -0.0865693020 8.9822561781 15.1507338010 8.7678772686 1.9563337721 16.5019053276 9.0545900601 1.5538711672 15.6028907469 0.0680883825 8.8738709278 16.0920071783 8.8762951561 2.9426163859 16.4089732324 4.4975092657 8.9933263643 18.9056114631 11.6183379311 8.6261495405 19.0885579445 4.7716623131 9.5830360725 18.1813052527 11.0773475714 7.9649189281 18.5873608835 4.1258419643 9.5958653775 19.6102008743 12.1768712175 8.2360816010 19.8427827049 9.1384160216 4.7484977879 16.2601998981 8.2200996281 4.9708183184 15.8946636445 9.7210480518 4.5152692915 15.4744394503 2.8941046339 2.5174269768 24.1157779062 -0.1506497589 13.4035098400 19.8390254685 6.5546240726 2.3994428320 23.2176257429 8.9764054980 13.0966296643 25.0227232208 3.5758269263 2.6516118719 23.3857315009 -0.8459206864 12.9872470929 19.1638706075 6.9655314180 1.5912078808 22.8057715307 9.6984776009 12.4893886725 24.9902224728 3.3888850675 1.9401607596 24.7805201233 0.7669065114 13.4119900169 19.3715440633 6.4471864945 2.1851249932 24.2026535015 9.3474763826 13.9507730144 25.3833249733 3.7373872985 7.0935799121 26.1799669531 3.2411789931 7.0611112460 27.0883049898 4.7318118860 6.9481181834 26.4429871067 -3.5623840756 9.7022810931 21.1228318222 11.0028787449 6.5341971003 17.6620933934 10.1742083238 6.2983905279 17.2242757847 -2.8904961458 9.4737525096 20.4354452178 11.7404827388 6.1967065134 17.0743235078 4.4751737545 3.2534747864 21.8225423671 5.3300547858 2.7436759317 22.1507280470 4.2416520670 2.7805056273 20.9600985801 4.9564563547 -1.5004441156 24.4319184465 3.8588545341 8.5424157236 23.1011631043 13.8099502082 1.7924437117 24.3890124159 12.3234643030 10.9538500089 28.4575733715 5.0590887993 -1.2338251414 23.4681173942 3.7388957646 7.5844896153 23.3111626979 14.7795707716 2.0261720727 24.2121599067 12.0540216134 10.7493313966 29.4156229152 5.7673812212 -1.9989617770 24.6034646635 3.7851389732 8.7254261610 22.1436396691 13.3357385274 1.8681511042 23.5527278628 12.4193225693 11.9197133894 28.3401745199 3.9676330581 10.2267834224 15.9043001927 2.4021438535 6.7937641435 28.8592302116 13.0825308975 5.3817829330 16.6025662956 10.9458753229 3.7756124877 30.4232106881 3.1311239555 10.7198423484 16.2339470944 1.8699009852 7.5921581291 28.9841549767 13.1126356598 5.3108758582 15.6413677957 10.2070648973 4.0275541052 29.7870799009 4.5295314445 11.0624186183 15.7501378836 3.0338543524 6.7350526884 29.5495151099 14.0207633298 5.4561357983 16.8766825279 11.0330321300 4.4097537523 31.1149956995 7.9529235293 5.4911787303 12.3209409560 8.2442074406 6.8509063373 29.3725483601 8.7151149255 4.9750451107 12.7377487840 8.1034949939 7.1623793735 30.3199400627 7.3706232549 5.7037966454 13.1197112060 8.3287251171 5.8898992399 29.4380664306 3.2105806265 9.3672833332 13.3952888907 4.9117067684 10.4295685100 29.0283168318 10.6307741307 8.3833363666 12.0723125064 10.0475837289 7.4982720447 27.4455819256 3.1503223438 10.1364374110 12.7580777956 5.2469534818 9.5466778279 28.7138918149 11.1279311729 7.5416678526 12.2358989660 10.2679720151 8.4770068366 27.2133058426 3.3615891887 9.8694357334 14.3084789396 4.1442025648 10.6659492657 28.4024288135 11.1870880024 9.0541986492 11.6294660275 9.3398850088 7.4795204064 28.1325419538 5.0090266508 9.1579673842 10.5537535246 1.1148562864 9.6113557841 29.0484836874 8.4155865434 7.5261989602 10.5499767488 12.0135834242 7.1986581638 29.5414233833 5.2262732963 9.5645352443 11.4411607692 1.6483027127 10.1575482544 28.3820093736 9.0052947321 7.7948032293 11.2889239834 11.2102168314 7.2985400586 28.9637089423 4.8132628056 9.8996586750 9.9331051905 0.1591936509 9.8895235375 28.9737135881 10.9401419828 7.6968638789 9.3674669408 12.7416953152 5.6063204169 29.1232847185 5.7988619524 -1.1992172889 14.7781079056 7.8326463381 7.9490357632 18.9542540347 7.2651341101 8.6300536367 19.3817653884 5.8443913839 -0.2631272289 14.9501054852 8.3594573263 12.8206585641 17.8268863184 -2.7693324046 11.7383538075 14.2570142751 8.7368287183 8.7730858990 16.4842921186 -3.0534844376 11.1472268462 15.0288065888 8.1087336661 9.2830270775 15.8566767941 -2.9991063466 11.2780909697 13.4186049675 8.2353063682 8.4262080850 17.2942451093 1.3314731813 3.5221993455 18.8263766774 7.9710466142 13.5534679304 18.3451401702 1.4959557926 4.2870963169 18.2149825873 8.0100502781 14.3183828442 17.6848827926 0.7319086551 3.8338048279 19.5572648276 5.3180498487 6.0933796438 20.6957652312 6.9264806285 6.8647229761 22.9501600557 3.4687076053 5.3613620431 23.4437443699 7.6123117748 6.8017615834 22.2039070700 2.8414973385 6.0806615821 23.7941533598 11.7981734614 4.5399293678 24.6182498021 3.2399948730 6.3474545864 24.6864989156 11.0939285441 4.8187352821 25.2426457792 2.0305717742 6.3264724183 22.1605794696 11.3349084942 4.0878384969 23.9215735534 4.6234346310 -1.0599731380 21.7595848037 3.5312233212 10.2160290176 20.9988207482 13.4016991084 4.2414983790 21.0274568944 13.0841655631 13.0904372303 25.3404969427 3.8070127429 -0.4177603802 21.8187929633 2.5913822350 10.4431363121 20.8978386694 12.4213969543 4.5190271858 20.8734837663 12.5286113836 13.1969296107 26.1512175558 5.1624751257 -0.9004430084 20.9289548616 3.9575523576 11.0954572013 21.3870540054 2.1310819214 0.3774310357 21.8251676923 0.8571453442 4.6589324885 25.5975698446 9.2633259206 -0.9475605545 28.4429947902 10.5202089995 10.1457859425 26.6217678579 -0.1054312840 4.6796366084 25.2279296625 9.6396307563 10.3502620483 27.0112996596 1.9335064076 1.0119195832 22.5253848896 1.3111708432 5.1365955019 24.8952216600 8.6831895543 -0.2488038687 28.8356285453 11.0595921435 10.5832639105 27.3824854030 6.4532857960 9.8647415411 23.1927485262 7.1949502192 9.4223901526 23.6455146462 5.7585396003 9.1160012959 23.1547066277 3.9297721299 0.7979867840 26.0906203150 1.2122015041 11.9301361983 23.4684879117 10.6386946542 -0.2309056640 21.8664909329 8.9134941625 9.8489154254 29.0933445212 4.5057535614 0.1119047396 25.6879190731 0.5740722930 12.2051578192 24.1043518234 10.7596783149 -1.0450005594 22.3724569665 8.1324709488 10.0667158222 29.5976040893 4.3325035834 1.1601891308 26.8600566360 1.6474827693 11.1945258880 23.9740318683 9.7518624206 0.0961298530 22.0974164443 9.5919057330 9.7014446077 29.7994746441 3.3016169421 5.8447469077 13.9392369709 2.8566677829 15.0760849932 14.4678548742 10.7642698951 1.3603107195 18.2702760424 9.2370504882 11.3901264047 17.1455257175 2.2515168292 4.2834042175 13.5921863247 2.2836261467 14.9632223762 15.2963268976 11.5787014606 1.7104714171 17.8776465299 13.1236989127 8.8560893375 18.2277815506 3.7543984252 5.6692657835 13.1018580338 0.8815584278 11.7559579597 15.9003411593 10.0320741757 1.7115040421 17.7266040819 9.1710905113 10.4177347671 17.0211271696 1.2358418025 7.5738499455 13.2676822335 -0.9367257769 2.5866075175 27.1862461317 11.2594346569 5.9538675303 11.1758422735 5.9267148852 4.4688941096 26.7764083717 1.8725972206 8.3353088650 13.1769496963 -0.8114625553 3.5666601797 27.5493683858 10.7067285888 5.2538431808 10.7883933356 6.5157608544 4.9281156099 26.1410020475 12.1876285908 5.6058275620 11.4839989004 4.9973509736 4.7959707425 26.8110913213 5.7538802765 2.8035913750 17.7555187868 3.6104238975 15.8592062285 19.2655694432 6.1296140396 3.7513195721 17.8722390017 4.8710253060 2.7997206020 18.2542525002 3.4625642364 14.9369746235 18.8898294432 -0.8470117834 1.6347804739 21.6947904490 0.5159532579 10.6934194072 21.2860132521 7.6758021896 -0.0319731011 22.4998916935 7.5742692916 10.9825018051 26.2878310144 -1.5784815897 0.9551616291 21.9328030722 0.6043547149 11.0072275141 22.2112825263 7.5971981256 -0.9701458017 22.1891733335 7.2476158012 10.8791600734 27.1809185633 -0.6680608535 1.2236399701 20.7507562481 -0.0080766708 11.4139343747 21.0177420071 8.0493879063 -0.2693505833 23.3831334082 8.0817833596 11.8627405240 26.3474797651 4.7122322939 4.1467393788 12.2323666411 6.7371145586 1.7852747285 26.1468965354 4.3335971446 13.7864856412 12.5478847702 5.7260580241 7.8878936030 28.1223538420 4.0082340276 3.5380985924 11.7945252800 7.7208844901 1.7357665168 26.0059512345 4.9924908354 14.4681710044 12.4732354375 5.1265846996 7.4816066907 28.7917411240 4.9419639509 4.8556008754 11.5891781145 6.5493966740 2.7716224903 26.2064548951 3.7025614873 13.9628334079 13.2628774910 6.6038829908 7.3884129340 28.3770162370 11.6258212686 7.9174634938 23.9403212779 3.8108790790 1.4380357108 14.8706425578 9.8472379920 -2.1582187568 17.9857486736 3.3035293439 -3.9903283665 24.2027242923 -1.8340004990 -0.4239874599 17.1405904200 0.3636254067 3.7750138301 29.8836549407 0.0065422480 10.7596989368 15.0287170597 -2.7610528789 13.2978357342 27.9070994912 -1.1435484345 8.9218002795 15.0556820685 -3.1820178984 9.7412556549 22.0369297148 5.3493183673 -1.1639252865 13.9433855859 13.1931443716 3.4130834333 21.4866643014 13.1275042286 14.0202322757 24.9499590608 1.6634056999 -0.4626607442 22.1027860691 9.1233423333 -1.8251918307 28.8922013039 0.6311317982 7.9808764425 13.9927097825 -0.3622814260 2.5825706502 26.4113509990 2.7928829246 16.4130095423 19.0544421801