-190477.9617628
-190480.5559594
-190478.7738547
-190476.0940274
-190474.0501940
-190477.7912269
-190479.1406890
-190479.8254387
-190473.1202755
-190474.8816805
-190474.5129238
-190475.0442945
-190476.2298008
-190479.1427523
-190474.3001412
-190479.2394585
-190478.8124861
-190474.9538879
-190478.3224108
-190477.4833515
-190472.5023685
-190475.1546742
-190475.2743998
-190475.3277256
-190477.0779501
-190476.4021128
-190478.9834751
-190475.1326014
-190478.8982957
-190476.3729217
-190474.5868204
-190480.8277421
-190475.4484728
-190474.3610866
-190477.2720986
-190479.5954128
-190475.9534335
-190477.3288496
-190473.4638622
-190479.5247341
-190477.8927644
-190473.7489688
-190477.8817541
-190474.2797500
-190478.0562163
-190478.4911974
-190472.2667813
-190479.0260155
-190478.2557069
-190476.9863763
-190473.3552165
-190477.5781330
-190477.8845826
-190470.5520881
-190473.1149361
-190475.2541323
-190479.3558169
-190479.4437907
-190474.1794810
-190475.3215964
-190465.6708578
-190475.2371894
-190466.3027174
-190476.0284925
-190473.6528290
-190475.6831127
-190474.1868774
-190468.1419908
-190465.0718731
-190476.0756185
-190473.9482828
-190463.7175926
-190473.8177701
-190473.8067734
-190475.1023642
-190475.5708743
-190463.0647053
-190464.4555202
-190474.9729835
-190468.5791293
-190475.3565804
-190463.9467022
-190465.7245636
-190474.8888822
-190476.2368280
-190474.4107985
-190477.8745714
-190477.8282618
-190475.7528902
-190475.1095033
-190476.5567074
-190476.9580738
-190475.1481654
-190475.4242405
-190476.3586473
-190475.7648464
-190476.4449041
-190473.7116413
-190477.3369330
-190478.7843238
-190477.8055876
-190475.8473771
-190476.0049278
-190476.0242644
-190475.5632790
-190477.9902277
-190474.6130452
-190476.5376445
-190477.0464129
-190476.4119207
-190473.8509336
-190477.4232448
-190475.5771916
-190475.9971782
-190476.1251488
-190477.9762185
-190476.9569489
-190473.4006976
-190475.6113008
-190477.5182000
-190476.0377705
-190478.5577506
-190475.3820383
-190478.2448897
-190475.2649604
-190474.9331797
-190459.9421260
-190454.8273929
-190458.5972982
-190458.9291781
-190457.3695963
-190460.5147332
-190456.8977411
-190454.5009579
-190461.6981215
-190456.2706431
-190461.4419364
-190460.9591157
-190462.0694489
-190460.6234915
-190470.5266577
-190468.7533048
-190469.8439421
-190468.6202555
-190470.7308979
-190470.6877688
-190469.0366568
-190470.8752603
-190471.4250960
-190469.1968819
-190471.0961118
-190470.8585667
-190469.7154104
-190470.1503710
-190468.6991902
-190467.5179300
-190472.1082973
-190467.4186556
-190468.7014067
-190470.4800140
-190470.2254220
-190467.9686815
-190469.2756797
-190467.5306032
-190470.0946600
-190468.2850377
-190468.3158552
-190470.1044332
-190471.2493642
-190469.9328970
-190467.6481846
-190469.4656416
-190470.5500109
-190470.0837908
-190468.7726886
-190470.6026035
-190470.8202155
-190469.7841497
-190469.9531967
-190470.3306208
-190472.0291906
-190470.8569732
-190471.5688934
-190471.4345090
-190471.5644805
-190470.8632525
-190472.1978617
-190469.8117601
-190469.9515788
