  -0.3791042   -0.2184739    1.0065231    0.2553348    1.2443692   -1.2803981    0.2367807   -0.5862282    0.9072687    0.3913894   -0.3149449    0.6011134   -0.1970895    0.8040327   -1.3008050   -0.2432064   -1.0746887   -0.4922904   -0.3048502    0.5014805   -0.3276847    0.5621622    1.1479575    0.1953880    0.1048219   -0.1331302    0.0598790   -0.6259492    0.5399658   -0.1908999   -0.4961522   -0.1701835    0.0778798   -0.0734549   -0.4934309    0.4444231    1.4217785   -0.1539505   -0.0163121    0.6891578   -2.3957673   -0.2989557   -0.6447815    0.8989974   -0.1543681   -0.0051977   -0.4802612   -0.8560019   -1.6243373   -0.0203256    0.4729953    2.0768681   -0.6217928    0.1137791    0.6895815    0.0736647    0.3542807    0.1855329   -0.1012213    0.0729325   -0.7341197   -0.1287383   -0.0303889    0.5852738   -0.8984261    0.2315516    1.0687803   -1.4790067    1.0709899   -0.2743029    0.3931203   -0.6272929   -1.1451863    0.4942532    0.7981700   -0.5458079    0.6450345   -0.3223054    0.4851792   -0.9795270    0.9434071   -0.4329467    0.7199401    0.1584500   -0.0052903   -0.1248631    1.0821850    0.2083782    0.8387930   -0.1997265    1.5017933    1.6928259    0.2460387    0.9441419    1.0857804    0.8862859   -0.6502050    1.5626791   -0.2553168    0.4069456    0.9810326    0.7969153    0.6459365   -0.3701835    0.9828036    0.7644685   -0.3014481   -0.1795654   -0.1135919   -0.6029846   -0.7158736   -0.7789932    0.6838536   -0.7189862    0.1601289   -0.3023207   -1.1306205   -0.5825762   -1.0875524    0.1739496    0.2156041    0.7983701   -0.7538190   -0.1143314    0.1331868   -0.6237263   -0.2269180    0.3859032    0.9472005   -1.4227884   -0.0237354    0.6463170   -1.3605307   -1.1094156   -0.3429786   -1.1071540   -0.5355333    0.4735876    0.3968453    0.1677419   -1.6665353    0.2182353    0.1286272   -0.4995702    0.8074759    0.3234357    0.0537947   -0.1556547    0.1732595    0.6593746    0.3181294   -0.2859053    0.5427601   -0.0706262   -0.5119280   -1.1736752    0.6176775   -0.8879370   -0.0706318   -0.0103261   -0.0183623    0.3285223   -0.8131338    0.2253974    0.0351419    0.0460274    0.3671794   -0.2229456   -0.1091809    0.6657566    1.0466091    0.5931594   -1.3265551    1.1305351    0.7572262    0.0605593    0.0731366   -1.1028855   -0.9908661   -0.8960149    1.3958808    1.4442304   -1.5423566   -1.2740017    1.2790339    0.0613167    0.9652450   -0.0085124   -0.2851308   -0.6385224    0.4303175   -0.2937044   -0.0326823    0.1943205   -0.4618094    0.1029172    0.3779472   -1.3551463    0.3642818   -0.9570262    0.1867131   -0.0869923    0.6996314    1.8184156   -0.2447311   -0.0202521   -0.5752892    0.8670576   -0.5865795    0.2349223    0.2543969    1.3656760   -0.4000669   -0.7791480   -0.4083114    0.8282576   -0.0076578    0.1443588    0.8102727    0.1361765    0.2189414   -0.1109354    0.6820101    0.3002438    0.1368445   -0.8985274    0.9045376    0.5272091    0.3314488   -0.0033064    0.2019268   -0.1925521    0.3317691    0.8389380    0.4282097    0.5543980    1.5010919    0.1105858   -0.7511795    0.2856461   -0.1694245    0.4863228    0.2871209   -0.1615589   -0.0720521   -0.8722271    0.6756744   -0.6913535   -0.1384740    0.6261400   -1.1605538   -0.4008146   -0.2862750   -0.8823475    1.3755058   -1.1828556    0.7211613    0.2782130   -0.6939549   -0.0398609   -0.3111304    1.4978112    0.4289348   -0.1220030   -0.6373834   -0.3725936    0.4046558    0.0123907   -0.0093172    0.2261399   -0.5519734   -0.4455112    0.0619734    0.2566070   -0.2726414   -0.3857669    0.3167760   -0.0588042    0.1030396   -0.3269529   -0.9049212    1.4960613    0.3617595    0.7483580   -0.1952003   -0.1774782    0.1163564    0.8308050    0.5110229   -1.0284206   -0.1611414   -0.9450500   -0.7096387    0.7668319   -0.8168584   -1.2202862    0.3228484   -0.1831932   -0.5322921    0.2002870   -0.4907904    1.1291118   -0.2028750   -0.4864349   -0.1664960   -0.3886039    0.4568333    1.2972167   -0.8169555    1.7843402    0.3023691    0.5111571    0.0474328   -0.1413825   -0.7324382   -1.0922432   -0.4159666   -0.4018821    1.6745098   -0.8464677    0.9115989   -0.4055079   -0.5986981    1.2941026    0.9587231    1.3291144    0.5524887   -0.3550957   -0.2693957   -0.5012862    0.1780757   -0.4130911   -0.4286756    0.1174537    0.0105297   -0.0592151    1.0021748    0.2790749   -0.8610433   -0.7413116   -0.0197168    1.6101721    0.1824630   -0.3835975    0.2729747   -0.8116565    0.3235375    0.7645683    0.1270856   -0.0388360   -0.3143062   -0.4660620   -0.7504606   -2.3510615    0.1727494    0.8132979    0.4849144   -0.9612886    0.1684737   -0.1424711    0.8809961    0.2210178    0.2646690    0.0580447   -0.0743759   -0.2327384   -0.1134829   -1.1604767   -0.8027378   -0.1858502    0.0242723    1.0611415    0.3691622    1.3972255   -0.7210575   -0.0632224   -0.2461020    0.3987068   -0.0928626   -0.9259668   -0.6317815   -1.3978657   -0.4466024   -0.4476102    0.7700344    0.5372754    0.1184590   -0.6762771   -0.3833373   -0.4202439   -0.2583415    0.6304373    0.1128345   -0.3280441    0.0005847    0.3249434    1.1613478   -2.0664922   -0.9155039   -1.5154181    1.2633867    1.1107705   -1.1420537   -0.0053500   -0.7841657   -0.4786003   -0.3141411    0.2900288    0.5651318    0.3192710    0.6388042    0.5292639   -0.5927995    0.7169977    0.0022883    0.3626409   -0.8579292   -1.0623356   -0.6117156    0.4872870   -0.1864621    0.0405761    0.1084625    0.9079495   -0.3926277    0.2042994   -0.2513836    0.2059593    0.7892766    0.0166561   -0.4849231   -1.2285575   -0.7055038    1.3726910    0.6387801    0.9896762   -0.4279207   -0.6746413   -0.1578956    0.2685698   -0.4786697    0.3155593    0.2385975   -0.0875682    1.0378679    1.6629723   -0.8214344    0.5096962    0.4759644   -0.2611795   -0.1079535    0.0232068    0.1950723   -0.5254072   -1.0612593   -0.1978871    1.1827311    0.6399098    0.0069939    0.6374662    0.2818676    0.4119012    0.0720861   -0.1623498    0.0545228   -0.3196171    0.0218292    0.3760847    0.4053300   -0.9084910   -0.5098772    0.4869348   -0.9501953   -1.8465352    0.5081741   -0.2644880   -0.6044481   -1.4082432    1.5139577    0.7685540    0.5921665    1.4120731   -1.1566313   -0.5233658   -0.1496707    0.7531916    0.2351907    0.9598755   -1.0343131    1.1375887    0.2288175    1.6464108    0.0503618    1.2472885   -1.1520064   -0.6491174   -0.1645543   -0.0027130    0.4382740   -0.8391709   -0.3128057    0.2990842   -0.1239591    0.8335268   -0.5016029   -0.3917566    1.9381180   -0.0930765   -0.2885617   -0.3632204    0.3364938    0.0185449    0.3981432   -0.6958509    0.1215140   -0.3447311    0.0864452   -0.1139102   -0.2276697    0.2771136    0.1592953   -0.4308693   -0.8498060    0.0627771    1.1937108    0.2816994   -0.3056297   -0.9930443    0.1958302   -0.7379049    0.6055321   -0.3350740   -0.4071421    0.5713194   -0.0483434    0.1571783    1.0239536    0.4300275   -0.4479321   -0.3620408   -0.1361245   -0.5340940    0.3191887    0.2305386    0.0596743    0.1628064    0.2270167    0.6347409   -0.0272162   -0.0797325    0.1765901   -0.1208558    0.4318463    0.4270481   -1.8793492    0.5685606   -0.3511409    0.2065075   -1.8768048   -1.4977361   -0.7463551   -3.0647373    0.2504338    0.5183367   -1.4755012    0.9601717    0.3272882    1.4394024   -0.6645621    2.3036966    1.6812698    1.4169526    0.7815946    1.0771662   -1.0750810   -0.4687792    1.1887696    0.1249320    0.5376333    0.0716089    0.5502019   -1.4687372    0.1395827   -0.1594296    0.4918805    1.2528446    1.1142590   -0.2647214    0.7549770   -0.5686373   -0.5441825   -1.7555444    0.1620161   -0.7508643    0.1057639    0.5537022   -1.4851645   -0.4822029    0.9035298    0.2680957    0.0322962   -0.2040660    0.4078779    0.5393370    0.2585744    0.3755340   -0.0899820   -0.0005934   -0.0415362    0.3627299   -1.1569100   -0.4689026   -0.2128741    0.6663156    0.3980486    0.8369104   -0.3498702    1.4998439    0.1171081   -0.2127897    0.1601716   -0.5695757   -0.2766261    0.2868458    0.0437581   -0.3603140   -0.7300265   -0.3552875    0.7324588   -1.7878611   -1.1389540    1.8094213   -0.4121917   -0.0895948   -2.5259454    0.3509881    0.2170243   -1.3121893    0.1316107    0.1521122    0.1118703   -0.3326798    1.1063565   -0.2870494    0.0167040    0.1128998    2.0261490    0.0632990   -1.4232363   -1.8663677    2.1771294    1.1421226    0.1513727    0.1826806    0.7056730    1.5415385   -0.3093470    0.0258139    0.5464245    0.3653945    0.1604832    0.2568436   -0.0044105   -1.9625316   -2.3072823    0.3259132    0.2378858   -0.6832468   -3.5061949    2.4389151    1.4808512   -0.1453502   -0.5653226   -0.8145089    2.4546148    0.2035086    0.7237386   -0.2466198   -0.1724126    1.1931518    0.4887741    0.2699176   -1.7493444   -2.3757821    0.9668823    1.1591618    1.2612907   -1.3419473    0.7770726    0.4866154   -0.9467814    1.0755567   -0.5148040    0.5692600   -0.7169195    0.3365442    0.1592892   -0.3925979    0.3395339   -0.5018610   -0.1640539    1.0430029   -1.1368019   -0.6184030   -1.7280006    0.4994288    2.4102905   -1.1727552   -0.6826344   -0.6455323    1.6759605    0.4168490    0.2637521   -0.8608196    0.3930550    0.1051227    1.3336297   -0.0431200   -1.9734887    0.7266913   -0.6997224    0.3329616    0.4017674    0.5391117   -0.9032449    0.0538127    0.6017623    0.6479769    0.2800874   -0.1889602   -0.0597036    0.0022420    0.4719987   -0.0714901   -0.5567850   -0.6791222   -1.9915188    0.1289964    0.7640114   -0.5877220    0.1249768   -0.2119258   -0.0258041    0.9101498   -1.2329546    0.6890878    1.3383647   -0.7281481    0.1143704    0.1622871   -0.1009174    0.5626733   -0.3104434   -0.3979823    0.0591153   -0.0681543    0.3391868   -0.5408925   -1.2011603    1.5528971    1.5036044   -0.0316282    0.1346482   -0.0828497    0.3345845    0.6360660   -0.0628116   -0.6913180    0.9560086   -0.1425919    0.0628630   -0.1412770    1.0251430   -0.7654388   -0.3461041   -0.1661417   -0.7382458   -0.2487338    0.4518942    1.0492322   -1.5618117    1.4360019   -0.2669120    0.2504358   -0.2136156    0.3037672    1.0524666   -1.2772850    0.9547369    0.4612736   -0.0370162    0.1630903    0.2912429    0.4242106    0.5670334   -0.4339176   -0.0790918    0.1667387    0.4456289    0.6424393   -0.9431453   -0.0680304    1.4666181    0.6891326   -0.0466995   -1.6798130   -1.0635296    1.0731933   -0.1404718    0.6415558    1.0621381    0.2768478   -2.1160713   -1.1275861   -0.4202408    1.2651967    0.2543259    0.2568538    0.4137236   -0.7318561   -1.1197211   -1.2076204    0.6704643   -0.0585872    0.3224093    0.3507454    0.3087017    0.9305125   -0.4294099    0.6532065   -1.1881885   -0.0794322    0.6274523    0.1104726   -0.3108337   -0.8155749    0.5413357    1.1356290   -0.1003780   -0.6200686    1.3405039    0.4513723    0.2430105   -0.1640308   -0.7361529   -0.5540817   -0.4016265    0.5422377    0.3528146   -1.1597465    0.0950069   -0.0173560   -0.1661622    0.1631859   -1.1994999   -1.7933787   -1.5216001    0.6114765    0.0545336   -0.9963826    1.6943125    0.4613759    1.2914153    0.3976850   -0.2922734   -0.8723063   -0.6652635   -0.1849858    0.6786769   -1.8888741    0.6726554   -1.4081074   -0.2906068   -0.6921608    0.6716393    0.9487925    0.1599973   -1.1342355    0.5877904    2.7372506    1.3508155   -1.2257082   -0.2929707   -0.1378703    0.4043416   -0.2092277   -1.6275095   -0.5851880    0.0942377    0.7145577    0.1351722    0.6901991   -0.4867183    0.6261189   -0.7714305    0.9981562    0.0342579    0.6989953   -0.5216647   -0.0840376    0.2607187    0.2165795    0.1705141   -0.3083381   -0.0096807    0.8387379   -0.0103919    0.6078903    0.0960349   -0.0640637   -0.3496460   -0.6266573   -0.2742350    1.0444345   -1.5202822    1.3967617   -0.7178940    1.1606248   -0.5333494   -0.0390098    0.8863553   -0.2886867    0.8422043   -0.5469783    1.0234579   -1.1118072    0.6674808   -1.2650908   -0.2708545   -0.7466811   -2.8319917    0.5973138   -1.5292790    0.4906886    0.3586593   -1.2923322   -0.4879015    0.1759294    1.4492446    0.3608488   -0.5232907    1.0362419   -0.2337638   -0.5537197    0.1895871    0.0808463    0.2318977   -0.1606318    0.6557689    0.6922565    0.8956581   -0.2879992   -0.2327137    0.0810556    0.9116545   -0.3448489    0.2858703    0.3348766   -0.1555811   -0.1084199   -1.0447117   -0.2388751   -0.6819792   -0.8321065   -0.0397966   -0.7213753    1.6824782   -0.1848542    0.2131096   -1.2192079    0.5347367    0.3985788    1.5370792   -0.5402029    0.2961424    0.0068253   -1.3156505   -2.7824316    0.4283295   -0.5361508    1.1104754   -1.0923044    0.9703754    0.2373068   -0.9451050    0.0324643    0.3096283    2.1320954    1.0713355    1.7555418   -0.3970412    0.2995187    0.3972012    1.1649638   -0.7124057   -0.1334671   -0.5991902    0.2620727   -0.6882769   -2.2140113   -0.0010048    0.9827074    0.1625910   -0.0217536   -1.5273537    0.1100607   -0.4489796   -0.3280369    1.4255292   -0.5582937    2.0342079    1.0338745   -0.0866987   -1.7024603   -2.5483835    0.7816198   -0.3932514   -0.3726142    0.1135744    1.0424059   -0.1844958   -0.1328155   -0.0549682   -0.1855628   -0.2625000   -0.3632379    0.0017298    0.0350390    0.3023336   -0.2120163    0.2084086    0.5960391    1.1144935   -1.5926299   -0.4240990   -1.3738598    1.3172945   -0.2338085   -0.1136330    0.5345845    0.8212699    0.0399174    0.6178014   -0.5914023    0.6329848   -0.3626831    0.3962848    1.0096747    0.3901409    0.3311361   -0.2093414   -0.4801620    1.0413476   -0.2561272   -0.2723782    0.6150966   -0.1910433    0.5600415   -0.6814439   -1.1568401   -0.0720578    0.1662584   -0.0983257    0.3907055   -1.2261972    0.1987464   -0.2384612    0.1867105   -0.2383537   -0.0211946    0.1441556    0.1367550    0.1754331   -0.7050189   -0.0519558    0.1146898    0.4108553   -0.4928740    3.1480879    0.0530578   -1.2689377   -0.1499314   -2.0737787    0.2675105   -0.4308204    0.3904716   -0.5290171   -0.3724497   -2.0104478    0.9569583   -1.4373939    0.0302372    0.0187634    0.1154683    0.3419841   -0.0800272    0.3812444   -0.8489437    0.3423420    0.2555935    0.6258027   -0.3388978   -1.5354784   -0.0222071    1.1569774   -0.0245047    1.3938126   -0.0308234    0.1035024   -0.1792271   -0.2971682    0.9720636    1.1176781   -0.4488531   -0.1941960    1.3288675   -0.5508457    0.8934284    1.0829496   -0.6108496    0.2152143   -0.7177618    0.1637367   -0.2172352   -1.1924792    0.6019701   -0.3963712   -0.9946656   -0.1031645   -0.6917813    0.1208368    0.5311655    1.8586760    1.5069021   -0.5924683    0.2284951   -0.9182473    0.0582998   -0.0385943    0.6931826    0.5990786    1.3677046    0.1487024   -0.2142897   -0.6028170    0.0334650    0.1113823    0.3313644    0.1838391   -0.1726419    0.6097142   -1.0949428   -0.4822831   -1.6297238    0.3102654   -0.2121434   -1.3784225   -1.5551998    0.4101400   -0.1614720    0.5987233    0.0071893   -0.4937693    0.0434054    0.0129579    0.4362465   -0.0388134    0.3343192   -0.2188473    1.0606695   -0.1764204    0.3391045    0.0793402   -0.2537377    0.3273268   -0.8889135   -0.3560285   -0.7985284   -1.2359530   -0.3372682   -0.2537346   -0.9929070    0.0659735   -0.2707537   -0.2058637   -0.0546632    0.1500646   -0.1747970    0.4813154   -0.1458901   -0.2055927   -0.1906227    0.0227368   -0.1443475    0.6329735   -0.0058961   -0.4795835   -0.0047910   -0.1347968   -0.0846942   -0.5614855    0.3488994    0.1542004    0.2179906   -1.1940923    0.3746618   -0.2959948    0.2638015   -0.5547641    0.6236388   -0.4718917    0.0101764    0.2413136    1.1008528    1.1139608   -0.0282328   -0.5285836    0.0391980   -0.5564219   -1.0604525    0.9585617   -0.7257379    0.2426187    0.0790522    0.3291841    0.8592985   -1.5623886    0.3383830   -0.7891465    0.8807734    0.0800030    0.1217788    0.7393977    0.6045376    0.4678037   -0.9568344   -0.2090483    0.9094819   -0.3707995    0.0120281    1.6872132   -1.1383554   -0.0859057   -0.8284304    0.6276076   -0.0877477   -0.8450623    0.7759541    0.3992838   -0.2122616   -0.4638118    0.7850235   -0.0143756   -2.0081682   -0.3874598   -0.2199765   -1.3701585   -1.2357673    1.2796715    0.7969997   -0.1585646    0.0763963    0.8836567    1.7796762   -1.4548475    0.0823401    0.6988915    0.4500785    0.7875241   -0.4404585   -0.1380020   -0.2669968   -0.3441629    0.0529817    0.0531699   -0.0723817   -0.1754990    0.3134181   -0.5502924   -0.3838623   -0.6683658   -1.4801308    0.8795928    0.4997003    0.3640324    1.3147923    0.6135370   -2.5756073    1.1237670   -0.4910285   -0.1517764    0.2914532    0.2466764    1.4580779   -0.9035961   -0.5578237   -0.1903147   -0.0412025    0.1047000    1.9167027    0.0320606   -0.1167112   -0.2438286   -0.0383876   -0.3360906   -0.5530481    0.4123002    0.0989196   -0.4937122   -1.0761768   -0.6672525    0.0388905   -1.2460384   -0.1927829   -2.1595564    0.2170819   -0.6275855    0.0084558   -0.0362757    0.0846346   -0.1213536    0.8481430    1.5198862    1.4066481   -0.2734256    0.7856184   -0.0807532   -0.1111838   -0.5311279    0.0211602   -0.0720022    0.0845055    0.5118179    0.1766637   -0.3542236    0.0321080   -0.7848646   -0.0170927    0.1678252   -0.8867662   -1.1359653   -1.2790395   -1.2344077   -0.1035677    0.1821309   -0.1498532    0.3934206    0.9021295    1.3514886    0.0096103   -1.1148144   -0.8843488   -2.0941886    0.4853638   -1.0209562   -0.4297544    0.3171719   -0.0572693   -0.0547023    0.9337233    0.2852167   -0.2644571    0.0266510    0.1598594    0.1505716   -1.3647514    1.1306868    1.1299571   -0.0349423   -0.1583631    0.5294963   -1.2979480   -0.0037908    0.5517101    0.8848044    0.6277310    1.5873371    0.9053542   -0.0066638   -0.2122519   -0.2873852    0.0009205   -0.1103297    0.1093239   -0.0836951   -0.4395817   -0.9722014    0.6718974    0.2748017    0.8053583   -0.4574267    1.3205526   -0.4316534   -0.9768890    0.8958915    1.8135608    0.0523302    1.7486142   -0.8194325   -0.6208687    0.3812577    0.5943750   -0.2386484   -0.7823768    0.6674448    0.7216241   -0.4387240    0.5295045   -0.2873394   -0.3329493    0.0382323   -0.0185562   -0.0661777   -0.5073329   -0.2981679   -1.1881397   -0.1466229   -0.1954713   -0.6379265   -0.3058159   -0.0256380   -0.0631340   -0.3249084    0.8378401    0.5450181   -0.1013447    2.4486606    1.0470185    1.7020237   -0.1042871    0.7851402   -0.5514386   -0.7979993    1.2986828    0.0986486   -0.0770617   -0.0792671   -0.6831172   -1.8505107   -0.6078687    0.3236290   -0.1472564   -0.0448390   -0.1505186    1.1605086   -0.4582675   -2.2305554    0.1814685   -1.0213907    0.3788281   -0.2422788   -0.8121620    0.4574180    1.9715279    0.7782044   -0.0649605   -0.2942711   -0.6629150   -0.9472946   -1.7678492   -0.2156298    0.5116636   -0.0708992   -0.1129291   -0.0871460    0.8685792    0.7470740   -1.2152129   -2.0498530   -1.4158912    0.6371515   -1.5318547    0.6200259    0.8290495   -1.4291751    0.6486649    1.2235397    1.6035684   -0.1285012    0.8937056    1.4227381   -0.1677167    0.7150544   -0.2386962    0.5388150   -0.4467669    0.6100274   -0.8136650   -0.3886157   -0.1632075    0.5786116    0.3135904    0.8275469    1.9613638   -1.2890458    1.7898835   -1.7202513   -0.0647255    0.7015330    0.2191877   -0.9313681   -1.2940404   -0.3494511   -1.5315678   -1.1300327   -0.6272790    0.7885731    1.1632766   -0.2899398   -1.0308570   -2.2521321   -0.2026051    1.5037695   -1.5308211    1.0125456    1.2141084    1.6623732    0.4773893   -0.8954894    0.1936813    0.2928035    1.5858314    1.5480429    0.2001728    0.2506935    0.0988610   -0.2735146   -0.0212250   -0.4039508   -0.1836715    0.0753447   -1.0515025    0.3035528   -0.6598544    0.4133194    0.1786460   -1.5357792    1.4112246   -0.3446478   -1.4165273   -0.5129770   -0.4682660   -1.1962027    0.5422048   -0.2818959   -1.2883392    0.0596779   -1.5178987   -0.9241850   -0.2616541    0.3080517    0.6691114   -0.1928539   -1.0850250   -0.4946208    0.6122653    0.0211530    0.8170394    0.6487878   -0.2952476   -0.4546561    0.0397385    0.2077823    2.0561291   -0.1659977    0.1850938    0.2530589   -0.1713045   -1.0624672   -0.4342323   -0.4623643   -1.3557484    0.3992586   -0.9032871    0.3043802    0.5494280   -0.8031153    0.3711770    0.5336769    1.2746949   -0.0027979   -0.0872659    0.8069365   -0.1783966    0.4979401   -0.6584464   -0.7656605    0.1604076   -0.0978002   -0.7836335    0.2123100   -0.6144405    0.3286653 