-36074.6779949
-36075.2501945
-36075.0588332
-36075.0649897
-36076.3234763
-36075.8512342
-36076.207583
-36075.5712334
-36076.3198701
-36077.2963911
-36076.1607832
-36076.7021014
-36076.7648789
-36075.9253894
-36075.0463207
-36075.8818714
-36076.17362
-36076.6573518
-36077.260046
-36076.8795078
-36074.9803218
-36074.9000779
-36074.2539864
-36074.3185835
-36074.5783419
-36075.9419226
-36075.5865635
-36076.4619257
-36076.3456479
-36076.7153702
-36076.581156
-36076.5596179
-36076.0533511
-36075.6371612
-36074.9359127
-36075.7179109
-36075.3674839
-36075.0554623
-36074.9730017
-36075.2968659
-36075.446213
-36075.2636229
-36075.4307697
-36075.2433865
-36074.3977016
-36074.0855334
-36074.1215986
-36075.1480521
-36075.6104294
-36076.1810748
-36076.6352885
-36076.0358835
-36076.1821694
-36075.6443271
-36075.9321628
-36075.1203038
-36074.4420436
-36075.1661472
-36075.8914356
-36075.878139
-36075.9148376
-36075.9431242
-36075.1559265
-36075.4349829
-36075.3687248
-36076.289812
-36076.8825738
-36076.4182218
-36076.1072508
-36075.1552743
-36074.2785351
-36075.1542202
-36075.410949
-36076.1975045
-36075.6597214
-36075.9019929
-36076.1455375
-36075.3365766
-36076.4646038
 -36054.5392819
 -36056.0026464
 -36055.3180715
 -36054.1950750
 -36053.0695974
 -36055.8815928
 -36053.5313467
 -36054.3012682
 -36055.7014439
 -36054.6789972
 -36051.6551183
 -36054.6287661
 -36054.1294784
 -36054.8698413
 -36055.8768408
 -36054.4204416
 -36055.2851620
 -36052.4943993
 -36054.3134052
 -36056.4708321
 -36054.5789979
 -36053.6962878
 -36054.4213318
 -36057.1686003
 -36054.9481550
 -36051.3461204
 -36054.2005695
 -36056.1424561
 -36053.5004652
 -36055.8482516
 -36054.5771050
 -36055.0073368
 -36055.9583775
 -36055.1185079
 -36053.3312117
 -36054.8332032
 -36054.4482578
 -36055.1388140
 -36054.4766542
 -36053.3909947
 -36052.8943640
 -36056.5390157
 -36057.0106509
 -36053.5764839
 -36054.4227408
 -36055.2263330
 -36054.6977300
 -36054.2875379
 -36053.2437499
 -36053.9608236
 -36054.8376069
 -36054.5587861
 -36055.9960366
 -36053.7347223
 -36056.0718533
 -36054.6686030
 -36055.2670139
 -36054.2186236
 -36055.7521577
 -36051.9013927
 -36055.4575347
 -36055.4420459
 -36056.0991347
 -36055.4335442
 -36053.8362424
 -36056.8515128
 -36057.2472861
 -36054.7946309
 -36053.7894800
 -36054.5682934
 -36054.4890237
 -36058.5360297
 -36058.3130446
 -36057.4792119
 -36056.5639327
 -36055.3922114
 -36053.5828683
 -36053.7818371
 -36052.3329871
 -36055.5932106
 -36053.8899007
 -36053.1775934
 -36053.5492097
 -36057.8436220
 -36057.9052153
 -36055.6804343
 -36056.0640958
 -36053.5629546
 -36051.9020246
 -36054.0546426
 -36055.6069874
 -36056.2436231
 -36055.5204614
 -36053.9276967
 -36053.8832951
 -36054.6607886
 -36055.2485613
 -36054.4867884
 -36056.0104840
 -36053.1278680
 -36054.3890228
 -36056.3564412
 -36054.8979866
 -36053.9469048
 -36054.4247392
 -36059.1457489
 -36055.4370980
 -36053.1810510
 -36054.4200426
 -36055.0650112
 -36055.2402020
 -36054.6274048
 -36054.3559942
 -36056.8272121
 -36054.4613862
 -36054.1539923
 -36054.3214014
 -36053.1043698
 -36053.3865896
 -36055.6741431
 -36053.4562030
 -36055.4268608
 -36054.4622758
 -36056.5070443
 -36055.8456715
 -36054.3423936
 -36054.7495780
 -36054.3437519
 -36053.7388355
 -36055.6470520
 -36052.6486660
 -36054.2937176
 -36052.3819801
 -36054.0215517
 -36055.4148568
 -36054.2867913
 -36055.1729115
 -36055.7879287
 -36053.7661535
 -36056.4133600
 -36055.3065416
 -36053.6883396
 -36055.4800942
 -36053.8947861
 -36054.1324091
 -36054.0521068
 -36053.3647031
 -36054.8879612
 -36056.5154544
 -36056.5540818
 -36055.8601940
 -36055.7084942
 -36058.9388721
 -36054.9552123
 -36051.5759495
 -36056.0622360
 -36054.5222935
 -36054.4412202
 -36056.2410929
 -36054.4507707
 -36054.4325206
 -36057.4241371
 -36055.6446798
 -36056.1657837
 -36054.9869374
 -36055.6450312
 -36057.7648128
 -36054.0498525
 -36056.5509294
 -36056.6116542
 -36054.9614797
 -36055.2082960
 -36054.5977688
 -36054.6602788
 -36057.4900057
 -36055.1234567
 -36054.9934501
 -36052.1133720
 -36055.8278308
 -36056.0016921
 -36055.0702496
 -36056.2938529
 -36053.9663596
 -36055.6225255
 -36055.6936490
 -36056.3243229
 -36052.2890540
 -36056.6288368
 -36056.4169575
 -36053.8887085
 -36054.4231759
 -36054.1898307
 -36055.5876963
 -36053.3833776
 -36057.0141086
 -36057.2157855
 -36055.2472078
 -36055.0683084
 -36055.9822318
 -36054.5648362
 -36053.2672307
 -36054.6716813
 -36054.6351175
 -36054.5388714
 -36056.0111845
 -36053.6481816
 -36054.8839248
 -36053.3864221
 -36053.3676135
 -36052.3889203
 -36055.3873693
 -36053.5896191
 -36054.7491060
 -36053.4677636
 -36054.2404605
 -36057.0282666
 -36055.3029856
 -36055.4266359
 -36054.8582140
 -36055.6557387
 -36052.5906951
 -36056.2617779
 -36055.8020044
 -36053.7526828
 -36052.8712895
 -36053.7343490
 -36055.3531343
 -36056.6800889
 -36052.5473889
 -36056.1619483
 -36055.2988538
 -36053.9289285
 -36055.1818041
 -36052.6094777
 -36054.4137546
 -36055.2450285
 -36053.4256664
 -36075.3072800
 -36059.8739444
 -36054.9079514
 -36054.2362176
 -36055.5197788
 -36055.9071988
 -36054.5414042
 -36053.2728278
 -36054.3960451
 -36055.3080985
 -36055.6182320
 -36055.2169320
 -36056.1044575
 -36053.0004928
 -36056.9001905
 -36056.0826450
 -36054.6086232
 -36055.9270368
 -36056.0014063
 -36055.5946408
 -36052.8034473
 -36052.9952469
 -36056.1037493
 -36053.5059141
 -36055.9132049
 -36053.8480792
 -36054.6687277
 -36055.7595190
 -36052.0089234
 -36055.4803521
 -36054.4365670
 -36056.8318928
 -36055.3393454
 -36055.6116243
 -36052.8445860
 -36053.7933485
 -36055.5116859
 -36055.4665053
 -36057.9790552
 -36056.5201429
 -36057.3362201
 -36053.5512152
 -36054.5530195
 -36055.3567889
 -36056.8991879
 -36054.4186600
 -36055.8415119
 -36055.2700134
 -36053.9737999
 -36057.7012674
 -36055.1053929
 -36051.7916719
 -36056.1618431
 -36056.9267416
 -36055.1880492
 -36055.7108280
 -36054.8533215
 -36053.9118778
 -36055.7792155
 -36055.4282794
 -36053.9490654
 -36055.8058899
 -36054.1312495
 -36056.1039846
 -36053.4520192
 -36054.0545427
 -36054.6601348
 -36054.7839953
 -36053.6208193
 -36053.6295492
 -36055.0300082
 -36053.4485509
 -36055.5181381
 -36057.0167763
 -36056.1372465
 -36054.4091019
 -36054.8397112
 -36055.7310999
 -36053.7906888
 -36057.4399301
 -36056.0684451
 -36053.6567598
 -36055.2318969
 -36054.4250602
 -36054.6629235
 -36055.3054785
 -36056.2112435
 -36056.5002163
 -36054.9589187
 -36052.1269707
 -36056.2192912
 -36056.7704714
 -36057.0499054
 -36056.4222007
 -36054.0642133
 -36055.2108347
 -36057.6382281
 -36056.7775518
 -36053.8830109
 -36052.5465217
 -36054.7580902
 -36055.4875969
 -36053.5432464
 -36052.6400963
 -36055.5919977
 -36054.4400073
 -36055.7678460
 -36054.6175451
 -36055.0824675
 -36055.7528558
 -36054.9682179
 -36054.2320832
 -36056.2284153
 -36053.8254359
 -36055.2456499
 -36054.5124981
 -36055.9818128
 -36054.7649327
 -36054.2183804
 -36055.0700783
 -36056.6682957
 -36056.9309352
 -36056.2709110
 -36053.8460907
 -36056.9626059
 -36075.3072800
 -36057.7173085
 -36054.1254966
 -36057.2321505
 -36054.9019615
 -36054.8487277
 -36053.5182636
 -36052.6136887
 -36054.9581150
 -36055.1364134
 -36052.3330376
 -36055.4877897
 -36054.7332215
 -36055.6773587
 -36054.5798274
 -36056.7146774
 -36056.6118677
 -36053.1752439
 -36054.8323854
 -36056.7657909
 -36056.7658107
 -36055.6028707
 -36057.2504368
 -36052.9669219
 -36054.8383133
 -36055.1106119
 -36053.4056842
 -36053.4376431
 -36055.6840951
 -36055.8169998
 -36055.0170545
 -36054.8570372
 -36054.3028396
 -36052.7681340
 -36054.3643723
 -36052.0792871
 -36054.2255722
 -36055.1717392
 -36053.6135664
 -36054.7164592
 -36055.6032176
 -36056.8103400
 -36056.1783878
 -36052.7603223
 -36054.1425331
 -36053.7781118
 -36055.2263274
 -36054.4449536
 -36056.8363972
 -36054.2361470
 -36056.1356751
 -36052.2680267
 -36054.4963888
 -36056.1308846
 -36054.1652528
 -36055.6351222
 -36056.2482695
 -36055.4391714
 -36053.6702720
 -36056.8970215
 -36054.1684049
 -36053.9173494
 -36053.9106338
 -36055.5287379
 -36051.0166614
 -36052.7742909
 -36053.8445201
 -36055.8518502
 -36055.3107146
 -36054.9886196
 -36055.2899651
 -36055.5607206
 -36053.7962580
 -36054.7025746
 -36053.0016248
 -36057.0819983
 -36057.2364857
 -36054.6437818
 -36058.2382320
 -36052.3252659
 -36054.1250208
 -36054.6284379
 -36054.8348286
 -36057.2808836
 -36056.0857117
 -36054.8765019
 -36054.4080711
 -36055.6445686
 -36056.3711560
 -36054.9463622
 -36055.8891137
 -36052.8645402
 -36054.9857971
 -36054.6253171
 -36056.1470297
 -36057.4729847
 -36055.7027493
 -36054.6048717
 -36054.2823748
 -36053.8720243
 -36054.2146509
 -36053.4347682
 -36052.3297211
 -36054.4318716
 -36055.8253602
 -36055.0940900
 -36057.1885198
 -36055.2911881
 -36053.4372451
 -36054.9010974
 -36055.8930822
 -36052.7482418
 -36055.2438733
 -36055.6330098
 -36055.6984908
 -36053.0750866
 -36055.3970660
 -36075.3072800
 -36060.1511367
 -36057.5588765
 -36056.1044939
 -36053.8321092
 -36056.1366874
 -36054.8696705
 -36055.1318068
 -36056.1084287
 -36053.3046480
 -36057.2584523
 -36054.8020518
 -36056.0433981
 -36056.3469839
 -36056.8399651
 -36051.7673118
 -36054.3346883
 -36056.4584112
 -36056.6242429
 -36056.8945200
 -36054.3577808
 -36053.3195591
 -36055.3535881
 -36056.6363075
 -36054.8560162
 -36055.9638889
 -36055.4879013
 -36055.7449699
 -36056.4903035
 -36053.2324711
 -36053.3780143
 -36054.2534474
 -36055.0210780
 -36054.9141109
 -36052.4624315
 -36054.8763334
 -36051.4343674
 -36054.5395252
 -36055.6635344
 -36055.0834564
 -36055.2709472
 -36055.6932370
 -36054.1956645
 -36056.4392900
 -36055.5492804
 -36056.5394364
 -36053.8578051
 -36054.7150871
 -36053.4957625
 -36055.3373960
 -36054.7273151
 -36056.2665733
 -36054.0508086
 -36056.6088592
 -36055.3385596
 -36052.7012800
 -36056.0359429
 -36055.6425675
 -36054.3266582
 -36055.0652187
 -36053.8685318
 -36053.7524847
 -36054.4339130
 -36054.0689303
 -36055.0142631
 -36055.9710726
 -36053.3537477
 -36054.9737854
 -36056.6095192
 -36055.3935437
 -36054.4265072
 -36056.6955929
 -36053.5121527
 -36055.6526320
 -36054.7872701
 -36054.3172449
 -36055.4534286
 -36055.2720699
 -36056.5458191
 -36055.7291558
 -36054.6557693
 -36053.0821642
 -36054.0934117
 -36056.3010683
 -36054.7155705
 -36054.1422912
 -36056.5074987
 -36054.7858472
 -36054.0638496
 -36056.1510407
 -36053.5143188
 -36054.0248448
 -36054.6042096
 -36055.9498759
 -36057.1362427
 -36054.3506584
 -36056.7270315
 -36054.3319710
 -36054.5403195
 -36054.6355321
 -36054.1463065
 -36054.3451572
 -36055.1206177
 -36054.4871838
 -36056.5323216
 -36056.1634702
 -36054.7850443
 -36053.8026495
 -36053.9800645
 -36056.8355756
 -36054.7087700
 -36055.5026196
 -36056.7167346
 -36055.9183146
 -36056.8383862
 -36055.5048959
 -36055.4472371
 -36056.8536692
 -36056.6554352
 -36053.9684934
 -36054.7469568
 -36053.2857328
 -36056.0572745
 -36053.7149044
 -36055.0200766
 -36055.1738918
 -36057.9119424
 -36056.1308503
 -36054.2593693
 -36055.1968888
 -36056.2529735
 -36056.9206554
 -36056.7737899
 -36057.9701128
 -36055.9183212
 -36059.0206140
 -36055.1529113
 -36054.6361364
 -36055.3676760
 -36057.0991721
 -36055.0268577
 -36053.3799983
 -36054.6432999
 -36051.9330831
 -36054.2985760
 -36053.3176518
 -36056.6981679
 -36054.7538849
 -36055.2857511
 -36053.7526703
 -36055.3307996
 -36056.2013060
 -36056.0424973
 -36054.6125064
 -36055.2399515
 -36056.3074126
 -36054.3043144
 -36054.0483681
 -36054.5672868
 -36055.0031111
 -36056.5415844
 -36055.8680446
 -36055.6249377
 -36057.0218622
 -36053.4956601
 -36055.3185190
 -36055.8722215
 -36055.9049093
 -36055.5647580
 -36055.6179957
 -36055.0302034
 -36055.3172474
 -36054.9934092
 -36054.3336931
 -36055.2579472
 -36054.0656736
 -36057.2387749
 -36055.6706533
 -36053.4231300
 -36056.3210837
 -36055.4100366
 -36055.4330559
 -36055.6023233
 -36054.0135359
 -36053.7121595
 -36054.5037804
 -36054.5024335
 -36054.7233393
 -36053.7994173
 -36054.2168234
 -36052.9843225
 -36054.6642874
 -36055.5819375
 -36057.3332413
 -36054.3936940
 -36054.5771585
 -36055.1513697
 -36055.3443553
 -36054.7337015
 -36053.9549847
 -36053.3454942
 -36075.3072800
 -36059.3938164
 -36058.0887371
 -36055.5345760
 -36055.6780014
 -36058.7328886
 -36056.5569138
 -36054.3982789
 -36055.5144382
 -36056.0123847
 -36054.6881282
 -36055.6042772
 -36058.2548505
 -36053.2940661
 -36053.8840854
 -36056.6961588
 -36056.1576040
 -36053.3486729
 -36054.2859978
 -36055.8239935
 -36053.3677101
 -36057.6009860
 -36057.9709459
 -36056.2587886
 -36057.1242322
 -36056.5965015
 -36057.2751592
 -36056.1057506
 -36053.3480468
 -36052.6285274
 -36055.8090114
 -36056.5596226
 -36056.2071386
 -36052.8571517
 -36056.7213679
 -36056.6543014
 -36055.9151019
 -36056.2649367
 -36055.6786633
 -36052.3874127
 -36053.3421628
 -36054.4301447
 -36053.2674356
 -36057.8327372
 -36054.9226670
 -36055.6123196
 -36055.5831692
 -36055.7188405
 -36053.3810586
 -36057.7250812
 -36054.2158177
 -36054.1442273
 -36055.5663280
 -36055.6914408
 -36053.7348900
 -36056.4536274
 -36055.2804421
 -36055.0198088
 -36054.7626830
 -36053.7864502
 -36057.3259766
 -36055.6176296
 -36055.4819688
 -36054.1120558
 -36054.0043396
 -36054.2310456
 -36052.4498078
 -36054.5082591
 -36053.2135244
 -36054.6760257
 -36055.8980233
 -36054.4040084
 -36056.2588270
 -36055.3045888
 -36056.5860624
 -36054.9415394
 -36055.2509056
 -36054.2266129
 -36055.0542658
 -36053.3634603
 -36054.1235424
 -36056.3301353
 -36056.3766486
 -36057.8157873
 -36058.7296767
 -36054.5394493
 -36055.2113636
 -36056.8415859
 -36056.0175424
 -36056.2774964
 -36053.7084879
 -36055.2260383
 -36054.3099263
 -36053.7947931
 -36052.5492858
 -36053.5900107
 -36056.6458714
 -36054.5382454
 -36054.7209446
 -36055.4274773
 -36057.2798364
 -36055.0128716
 -36055.6406802
 -36054.7863481
 -36055.4476261
 -36055.7961350
 -36055.2722022
 -36054.3919763
 -36057.3450902
 -36075.3072800
 -36059.7178010
 -36055.8423085
 -36053.1071774
 -36055.6168237
 -36056.5145137
 -36055.4077535
 -36055.9027731
 -36054.1708336
 -36054.8455111
 -36055.5943239
 -36057.2496466
 -36056.4247067
 -36055.4055398
 -36052.9651445
 -36054.5288336
 -36057.6825780
 -36056.2655822
 -36056.2118553
 -36055.9179704
 -36056.2004326
 -36055.5436279
 -36056.9263426
 -36057.6769073
 -36055.0501032
 -36055.6034721
 -36054.7588142
 -36053.0484855
 -36054.6270257
 -36053.3186119
 -36055.7992495
 -36056.5412921
 -36054.9834747
 -36053.4846197
 -36056.3901556
 -36054.5617304
 -36055.7355462
 -36054.7543835
 -36054.3314803
 -36054.1424042
 -36055.2620429
 -36056.2377497
 -36054.4888579
 -36055.4691990
 -36052.0408928
 -36053.6021157
 -36056.3072005
 -36055.1126404
 -36053.2536504
 -36057.5743628
 -36056.8292001
 -36054.4888964
 -36055.0920997
 -36055.9940600
 -36055.3396495
 -36055.1154124
 -36056.5314343
 -36054.7743562
 -36055.2596674
 -36054.5362320
 -36054.1545684
 -36053.2923004
 -36055.0414775
 -36057.1029719
 -36054.5509861
 -36054.5451514
 -36054.8444707
 -36057.5940466
 -36055.8836681
 -36056.3572856
 -36058.1208028
 -36055.5880387
 -36052.5289854
 -36054.5096540
 -36054.4879421
 -36052.9968608
 -36054.0723268
 -36058.1548663
 -36053.8176472
 -36056.0114958
 -36053.5755629
 -36054.0205797
 -36056.9560754
 -36056.5685693
 -36054.7611712
 -36054.4866432
 -36054.6525263
 -36051.9537250
 -36055.1565790
 -36055.6026407
 -36054.4713617
 -36054.0968325
 -36055.1672731
 -36054.0815209
 -36053.8829890
 -36054.8829021
 -36053.9189308
 -36054.9268969
 -36056.2523347
 -36053.7272153
 -36057.3592926
 -36053.7904505
 -36053.8467052
 -36055.5461543
 -36075.3072800
 -36059.5786891
 -36056.5627736
 -36055.2016143
 -36057.7969767
 -36056.1059629
 -36057.2054286
 -36053.7253628
 -36053.5835369
 -36050.9447640
 -36055.5385827
 -36055.6129743
 -36055.3534070
 -36051.5053598
 -36056.0153348
 -36056.2443340
 -36054.0350552
 -36054.7417032
 -36056.2728757
 -36054.9993345
 -36055.5540431
 -36055.3079601
 -36055.5722264
 -36054.2027375
 -36053.5190039
 -36056.7944241
 -36056.8300515
 -36056.6730161
 -36054.7481280
 -36055.6023887
 -36053.2822367
 -36055.1272325
 -36053.9661128
 -36056.5168041
 -36055.1807431
 -36054.8202995
 -36053.8018419
 -36054.1484361
 -36056.1381465
 -36055.4228944
 -36052.8625296
 -36054.7028531
 -36055.2441711
 -36054.7739178
 -36055.3443242
 -36056.8398007
 -36057.5039796
 -36054.1385584
 -36055.8393867
 -36053.8440901
 -36056.9713988
 -36056.2340300
 -36053.2589076
 -36055.7181459
 -36053.7745479
 -36054.3798849
 -36057.8392728
 -36056.8128748
 -36056.1961495
 -36055.8012008
 -36055.8194058
 -36055.7829218
 -36056.4929570
 -36056.3642667
 -36055.1688354
 -36056.6637194
 -36055.4393747
 -36056.3038071
 -36056.3765408
 -36055.9779264
 -36055.0680438
 -36054.8421615
 -36056.0470468
 -36057.8944067
 -36054.0784458
 -36055.2049918
 -36052.8236942
 -36054.4501112
 -36055.1533505
 -36054.4314461
 -36053.3999438
 -36054.8123441
 -36055.8821139
 -36056.3790101
 -36055.4048698
 -36053.8061785
 -36055.5780016
 -36055.2566474
 -36054.5366666
 -36055.4235669
 -36055.1068142
 -36056.6065131
 -36051.9562136
 -36054.9563849
 -36056.3233962
 -36053.4495162
 -36052.7706692
 -36056.2443404
 -36055.2799796
 -36055.4296017
 -36053.4575944
 -36054.8034375
 -36053.9859549
 -36051.7620962
 -36055.6748150
 -36054.4423679
 -36057.7403510
 -36055.6577844
 -36055.1488160
 -36055.2785088
 -36054.3534354
 -36054.7340648
 -36056.6257003
 -36055.9072475
 -36053.2117133
 -36059.1907436
 -36058.0721242
 -36055.3996341
 -36055.1807659
 -36054.6812081
 -36056.7317630
 -36056.1364960
 -36055.0915963
 -36053.4756332
 -36054.8468602
 -36056.3776250
 -36057.5049206
 -36054.2787114
 -36057.6011468
 -36055.7195548
 -36055.0258612
 -36054.0766719
 -36053.2529264
 -36054.8135171
 -36054.7595493
 -36056.6222214
 -36056.2131733
 -36054.8801860
 -36056.5075518
 -36055.9672606
 -36054.7044629
 -36054.8512065
 -36056.7156340
 -36055.3858911
 -36055.4598766
 -36056.8136860
 -36053.4106027
 -36054.7035672
 -36054.5418481
 -36054.6225875
 -36054.0149579
 -36055.1780397
 -36053.1034501
 -36055.1476659
 -36055.5592084
 -36051.0312251
 -36054.2989771
 -36054.7080869
 -36055.6840732
 -36053.6568368
 -36055.5755250
 -36055.8685027
 -36055.0035509
 -36055.9707332
 -36055.7728531
 -36055.6556374
 -36055.3522634
 -36055.1259412
 -36053.3964707
 -36054.3969348
 -36053.9209992
 -36053.9746742
 -36054.7398435
 -36057.5666235
 -36055.8563605
 -36053.8753846
 -36055.7860013
 -36053.6833204
 -36055.8699878
 -36053.0491621
 -36054.1216358
 -36054.6573662
 -36053.5350103
 -36056.5474158
 -36052.2104153
 -36055.4646682
 -36056.7117274
 -36058.9905506
 -36055.4873356
 -36054.0204300
 -36056.2503067
 -36052.1851379
 -36056.2319220
 -36053.1015847
 -36054.1189822
 -36055.6400567
 -36054.5658443
 -36054.6752282
 -36052.4818411
 -36054.7122780
 -36057.4242343
 -36053.9256993
 -36054.7702363
 -36057.5864893
 -36055.1497714
 -36053.8214252
 -36053.9875037
 -36056.1914484
 -36055.6358130
 -36055.3007897
 -36055.5939075
 -36051.9089647
 -36055.5475711
 -36054.9977707
 -36055.3557916
 -36056.1700145
 -36054.5363713
 -36058.4283001
 -36056.1688689
 -36055.6819757
 -36054.6046591
 -36058.2059923
 -36055.4953450
 -36056.1711834
 -36055.4033658
 -36056.7649696
 -36054.7884260
 -36056.3855306
 -36059.1747612
 -36057.3551950
 -36054.1770931
 -36053.0684940
 -36053.4943650
 -36054.5537471
 -36054.9565394
 -36055.6505596
 -36057.0188989
 -36055.0429653
 -36054.7156639
 -36075.3072800
 -36059.6658489
 -36056.6634655
 -36055.4022077
 -36053.6425644
 -36055.9906588
 -36055.1260553
 -36054.6561173
 -36054.0734619
 -36055.8079829
 -36056.1633535
 -36055.2098507
 -36052.6115718
 -36052.8629399
 -36053.0515928
 -36057.3034926
 -36055.1014695
 -36056.0689554
 -36056.1806966
 -36054.9393125
 -36054.7144147
 -36053.0812434
 -36058.0360415
 -36055.2607218
 -36055.6915883
 -36055.5417334
 -36055.0849159
 -36054.9584319
 -36056.6625236
 -36054.0845783
 -36057.2914785
 -36052.3384901
 -36057.0429297
 -36054.2013181
 -36054.4682838
 -36054.2430131
 -36055.7946097
 -36054.5575679
 -36054.8253168
 -36056.4518947
 -36052.5029552
 -36054.3547226
 -36055.0360141
 -36057.6585843
 -36056.6584843
 -36053.8442223
 -36053.8777805
 -36054.4958621
 -36054.7737208
 -36054.0490397
 -36055.7563284
 -36057.3404883
 -36056.9657659
 -36053.2042130
 -36053.9421739
 -36056.9686792
 -36054.9755937
 -36055.2015918
 -36055.7352376
 -36056.1183244
 -36054.7626205
 -36054.9200052
 -36054.8033767
 -36056.6427739
 -36055.5027616
 -36054.9396166
 -36054.5324221
 -36055.5440581
 -36054.7551804
 -36056.5151060
 -36057.2467199
 -36056.3208227
 -36054.1934595
 -36056.1926517
 -36054.6658047
 -36051.4132381
 -36054.6739401
 -36053.5555002
 -36055.4816604
 -36056.9708291
 -36052.4880218
 -36057.4290049
 -36054.2501573
 -36054.7879594
 -36055.0028457
 -36055.6026407
 -36055.9285251
 -36075.3072800
 -36059.5153860
 -36058.0307821
 -36057.3280983
 -36055.0305851
 -36055.1958470
 -36054.8152640
 -36055.8943798
 -36056.2619024
 -36055.7012528
 -36054.1065359
 -36056.6403420
 -36053.1948376
 -36054.2316761
 -36055.2712519
 -36055.4861578
 -36053.9403540
 -36057.6267344
 -36055.7677892
 -36055.0369313
 -36055.4406094
 -36057.4420470
 -36056.3745618
 -36053.7282107
 -36055.2365255
 -36057.6051746
 -36053.2034639
 -36055.2418099
 -36053.6786180
 -36053.2890549
 -36055.7493695
 -36055.5862755
 -36052.0991319
 -36053.7205618
 -36055.7461454
 -36057.2590218
 -36056.0699002
 -36058.0226015
 -36054.5484638
 -36057.0208586
 -36055.8302184
 -36054.2528431
 -36054.4218380
 -36056.0333599
 -36053.9728058
 -36055.3102146
 -36056.0460835
 -36056.2301636
 -36057.1351758
 -36056.7501076
 -36053.7352601
 -36052.3250280
 -36055.0501693
 -36056.0664950
 -36055.3742963
 -36054.8158809
 -36054.0389480
 -36056.2984086
 -36054.2816826
 -36055.5694713
 -36052.5213647
 -36052.8328752
 -36055.8400505
 -36053.7449590
 -36057.1275226
 -36052.4891591
 -36056.4704672
 -36055.8370956
 -36053.8447569
 -36054.7681530
 -36053.5690291
 -36053.3138868
 -36056.8851543
 -36056.1275225
 -36057.1155625
 -36056.5271041
 -36053.8382398
 -36052.1716141
 -36054.0441110
 -36055.3031210
 -36055.0158039
 -36058.1901458
 -36056.8514643
 -36055.4666257
 -36055.1138488
 -36056.3485400
 -36055.7584278
 -36055.5105957
 -36055.0325230
 -36075.3072800
 -36056.2524172
 -36053.7807764
 -36056.4880660
 -36054.9363525
 -36055.8443718
 -36054.6607701
 -36055.3511472
 -36053.8983481
 -36058.0008383
 -36055.3719485
 -36057.7152799
 -36055.5176785
 -36054.7018692
 -36056.9949700
 -36056.0775116
 -36056.1839819
 -36055.8436106
 -36053.7298048
 -36056.8245007
 -36055.7477624
 -36057.1841587
 -36056.7370937
 -36054.0227952
 -36057.9896287
 -36054.2207554
 -36055.2851222
 -36053.8422514
 -36056.6199484
 -36054.5580901
 -36053.0317618
 -36056.2130100
 -36056.3906139
 -36054.6847119
 -36056.2174735
 -36056.8033781
 -36054.6474375
 -36054.8683162
 -36056.5666936
 -36055.2360410
 -36056.0044772
 -36056.6293396
 -36053.9063034
 -36055.4559622
 -36056.6302149
 -36055.1023340
 -36057.7042292
 -36056.0983934
 -36057.2221838
 -36055.4726956
 -36057.5644677
 -36056.2562184
 -36056.8265226
 -36055.4151796
 -36054.7898339
 -36057.6537465
 -36055.7320027
 -36054.0826560
 -36056.2472615
 -36055.3557369
 -36056.9033215
 -36056.7599365
 -36054.9810040
 -36054.6310205
 -36055.7107997
 -36055.8111666
 -36056.3480805
 -36058.5313354
 -36056.1516563
 -36054.9188443
 -36054.5539399
 -36055.5206598
 -36053.1044185
 -36053.9914247
 -36055.7792168
 -36055.6284238
 -36054.5801676
 -36055.7567024
 -36053.3523137
 -36056.4107852
 -36055.5501654
 -36054.0902760
 -36055.8927885
 -36055.4261276
 -36054.3307900
 -36055.1979992
 -36054.2011635
 -36055.7973693
 -36059.9395864
 -36054.4775982
 -36054.3384433
 -36057.3405329
 -36053.7431487
 -36054.6439234
 -36055.8393935
 -36055.2690194
 -36057.3002529
 -36054.2844530
 -36054.5325709
 -36055.6406635
 -36055.2886008
 -36055.6912764
 -36053.6411612
 -36053.4848614
 -36056.6775042
 -36056.0626861
 -36054.0469903
 -36055.7912257
 -36055.7329571
 -36054.7638815
 -36057.0062797
 -36052.9633335
 -36054.7895097
 -36054.1639849
 -36057.3726507
 -36055.8239682
 -36055.8078270
 -36054.1528813
 -36056.6632639
 -36053.4285987
 -36055.2445015
 -36056.0226371
 -36056.6875301
 -36054.8722263
 -36055.7278189
 -36056.8699951
 -36054.7499139
 -36053.0392018
 -36054.0383737
 -36055.0728084
 -36055.1455974
 -36054.4736087
 -36054.6209149
 -36056.8905574
 -36055.1446082
 -36055.1354744
 -36056.2091604
 -36055.9875390
 -36055.4499855
 -36055.5412964
 -36055.4623333
 -36054.5704458
 -36055.9728782
 -36054.9116462
 -36055.9704134
 -36053.4972182
 -36055.7835269
 -36056.9727374
 -36054.9104264
 -36057.2504854
 -36054.1704843
 -36056.0596299
 -36056.3476144
 -36055.2603545
 -36053.5723032
 -36052.6966166
 -36055.4636105
 -36054.5585453
 -36056.7462658
 -36055.4891602
 -36052.5697916
 -36075.3072800
 -36066.9946042
 -36065.0859012
 -36065.9162548
 -36063.3599311
 -36063.7654193
 -36064.4098693
 -36063.8949143
 -36063.7969007
 -36064.0386537
 -36062.0284510
 -36064.1886847
 -36063.8752487
 -36063.5292750
 -36062.7545617
 -36063.4910930
 -36064.1388524
 -36064.1854343
 -36062.7151993
 -36062.8401457
 -36062.0165695
 -36061.6141252
 -36063.4699148
 -36065.0860455
 -36063.3442121
 -36064.7273421
 -36064.1602943
 -36065.0440584
 -36063.8683367
 -36065.7850827
 -36064.4867339
 -36063.8114175
 -36062.6631831
 -36064.8382847
 -36064.7431002
 -36062.0380194
 -36065.9334667
 -36064.6215627
 -36063.5471780
 -36063.8645365
 -36063.6655391
 -36064.2932270
 -36064.7710317
 -36063.8746975
 -36063.2761241
 -36062.7267974
 -36064.3563062
 -36064.3323532
 -36062.4187509
 -36064.4248408
 -36064.1259112
 -36065.3047538
 -36063.7253381
 -36063.4913202
 -36065.0196775
 -36062.2815337
 -36064.4432561
 -36065.0270895
 -36063.8338327
 -36063.1057666
 -36064.3753227
 -36063.1892792
 -36062.9139507
 -36063.6272415
 -36064.5408207
 -36064.2566012
 -36063.5515237
 -36065.6102689
 -36063.3397625
 -36064.4782919
 -36065.0522108
 -36063.6984150
 -36063.7479390
 -36062.8325097
 -36063.8884167
 -36063.6115691
 -36064.5655278
 -36063.4252375
 -36063.0895206
 -36063.8237645
 -36063.6172284
 -36064.2620185
 -36065.6999809
 -36063.5823405
 -36064.6203249
 -36064.3130829
 -36063.3737566
 -36064.4628541
 -36064.7410776
 -36064.6114358
 -36063.9660883
 -36062.9818531
 -36064.8161998
 -36063.4420971
 -36065.0297898
 -36062.9680565
 -36063.3134660
 -36064.4143289
 -36063.7104661
 -36062.8861044
 -36064.0340558
 -36063.9111052
 -36063.6678209
 -36064.2706372
 -36063.7713583
 -36065.0286281
 -36063.9241311
 -36064.7815506
 -36064.6601355
 -36063.8303827
 -36065.1939519
 -36065.8952942
 -36065.1401460
 -36065.0378337
 -36063.8265377
 -36063.9201652
 -36063.5713145
 -36063.0327605
 -36064.4943258
 -36064.7653614
 -36062.9473994
 -36064.4856303
 -36064.2121752
 -36064.9890191
 -36063.9867348
 -36063.9743548
 -36064.7572818
 -36063.0319205
 -36059.2755187
 -36057.1106806
 -36054.0961547
 -36056.8080680
 -36057.0529650
 -36056.6951234
 -36057.5022849
 -36055.6956995
 -36057.4302233
 -36054.1642862
 -36052.0881188
 -36055.5820877
 -36056.6697581
 -36057.1503813
 -36056.0367779
 -36057.0893181
 -36054.9430860
 -36056.2686606
 -36054.4632708
 -36055.3783714
 -36054.6073398
 -36056.1842506
 -36058.1210989
 -36054.8790810
 -36055.7537761
 -36055.4636997
 -36054.1476398
 -36054.5229624
 -36057.3444063
 -36057.2738009
 -36056.4862536
 -36053.7773830
 -36056.3501254
 -36056.6864948
 -36056.6614695
 -36056.8642478
 -36055.9902909
 -36055.5869212
 -36054.8374339
 -36056.6186240
 -36056.5373252
 -36054.2396888
 -36056.6705643
 -36053.4790564
 -36057.2437180
 -36055.4729422
 -36056.1632751
 -36054.2168630
 -36053.4037735
 -36057.3032780
 -36055.7308086
 -36054.6061556
 -36054.5074798
 -36053.3258263
 -36055.5030454
 -36056.4163885
 -36055.2859326
 -36054.6672884
 -36054.6691251
 -36056.3173138
 -36056.1441819
 -36054.8764157
 -36054.5416011
 -36055.9855708
 -36054.3853299
 -36053.8357901
 -36056.5328217
 -36056.2588312
 -36055.0890303
 -36055.3694657
 -36055.1125311
 -36056.1332676
 -36055.5888624
 -36057.3393961
 -36055.5374675
 -36056.9033566
 -36054.4264593
 -36054.0057950
 -36055.0696870
 -36058.8040845
 -36056.1178550
 -36055.7873156
 -36055.9998529
 -36055.4556417
 -36055.4260815
 -36055.1114409
 -36055.1263993
 -36054.6657417
 -36056.4427540
 -36056.6865941
 -36055.8255612
 -36054.5173962
 -36053.4363401
 -36053.7300735
 -36055.0329679
 -36053.7693715
 -36055.8401446
 -36056.7556313
 -36053.7923953
 -36055.8125302
 -36056.3231930
 -36055.8154796
 -36054.4766264
 -36053.8213011
 -36055.7191379
 -36055.6492323
 -36056.5390145
 -36056.4043370
 -36053.4409039
 -36064.1844741
 -36064.4119594
 -36063.2858539
 -36062.7054863
 -36062.3625146
 -36063.2304940
 -36064.3262156
 -36063.9111634
 -36062.0620952
 -36062.6560093
 -36063.5439368
 -36063.7237790
 -36065.1184223
 -36064.7668703
 -36062.5494803
 -36064.5390422
 -36062.2412963
 -36064.3296239
 -36063.6465444
 -36062.9437029
 -36064.2321268
 -36063.3941577
 -36063.4406138
 -36064.1987734
 -36064.4181125
 -36061.6678435
 -36063.3684192
 -36063.1203266
 -36063.4780561
 -36063.5414235
 -36064.9553459
 -36063.8409753
 -36065.6643059
 -36062.5770818
 -36061.7525955
 -36063.6545283
 -36063.8048424
 -36062.2205191
 -36062.3815247
 -36063.5227333
 -36063.9640570
 -36064.3165714
 -36064.2741192
 -36065.3947985
 -36064.3051151
 -36062.9208813
 -36064.3529884
 -36062.3831909
 -36062.4154855
 -36064.9622192
 -36061.2357155
 -36062.8431161
 -36062.5212496
 -36062.8668420
 -36064.6260130
 -36062.8711500
 -36064.2556458
 -36064.2373864
 -36062.2215515
 -36062.5819421
 -36062.4607679
 -36061.7691207
 -36062.1542686
 -36061.9105599
 -36063.8781284
 -36062.7174223
 -36065.6282533
 -36063.9125018
 -36063.4118698
 -36062.6635539
 -36062.4798239
 -36061.9958325
 -36064.1511567
 -36064.2103117
 -36063.4943116
 -36064.2218178
 -36064.1057597
 -36063.9763710
 -36064.6259140
 -36065.0180239
 -36064.6928435
 -36065.8494477
 -36064.9153425
 -36064.8627536
 -36065.4236937
 -36064.4055479
 -36064.8582328
 -36064.9299158
 -36062.6794005
 -36061.6239566
 -36062.3834296
 -36064.0902936
 -36065.6022876
 -36062.8040006
 -36063.5990258