7.0219818317 4.2533746973 1.4382061639 8.1777854746 3.5631803025 2.6692104096 1.8452815718 11.0978015718 1.5083545395 1.9100973250 9.5720912924 2.6489530245 7.5857669253 9.5653283318 3.3890678214 13.6114194424 5.6013611390 3.3753413156 2.7038278871 12.3525028630 2.4350509908 12.7282955411 13.0162766137 3.0248450143 10.8940455777 7.0167347031 2.5221034656 12.8950592173 11.2900980958 2.8519833876 5.6660008174 0.8009372919 1.6856984067 6.3900072448 9.5851294197 1.8733235933 7.7775231036 12.8317474396 2.1482858348 10.9362257059 10.8369882484 3.1159196464 0.3929581685 8.2730144441 2.4744963934 6.0658538150 12.8686139293 2.7416434979 4.5765465901 11.8502363116 1.8914078967 4.8841978644 10.0842564419 2.6054973486 13.0795157058 0.6732107901 1.7229145902 3.4726478121 8.7771767165 2.2028208974 9.0282859817 4.9750417447 3.4160559162 8.0265993448 7.8348228811 2.9509358883 5.5927938731 4.3212599437 2.5667110949 10.7964794834 12.7621525763 2.6694271113 9.1131347476 10.4821225888 3.2327429162 9.1913569922 0.2497560624 2.6893359864 0.6600138664 3.1779513045 1.9476168919 6.1064199681 11.0608523873 3.8511666288 9.0223818708 1.9894623594 2.1615517355 1.3614776701 1.9880984556 3.9825491446 0.2992792355 3.8005078535 3.6784538484 12.0542330369 8.3729095954 2.3699300756 5.2494111781 6.0448235926 3.1071726704 11.2317719175 9.7230001213 1.5963606958 4.1556981782 1.4294939469 2.3002028945 2.5556261739 6.5023265483 3.7507126997 1.0544555762 1.4408569553 2.1672962710 11.2876953489 11.3348687158 5.0211063456 4.0043859243 0.1850317923 3.6862039577 9.3717182304 6.7835321860 3.5312692079 4.1601664081 3.2482343056 2.2467079691 11.7544143626 9.1528545327 3.9945650327 4.1854917449 7.2470194059 3.9123625701 2.6912870692 0.6614927878 1.4430812626 5.0081302873 8.9651760476 4.2368074215 0.8603906724 7.0663342324 4.0038315447 8.9651806765 0.4170613043 4.4084294574 1.8462538499 9.0121535856 4.4446211493 12.4196020822 3.1654949741 4.4493591312 1.6447160362 12.2718992044 5.4839826073 6.6611119492 3.3932331861 3.7111405694 1.1791586875 13.2524845677 3.2551495232 4.8325321077 4.8948844323 6.2524132941 3.6349776604 3.8744537887 5.3398501904 9.4729253424 7.5988316681 5.1439262644 2.9584062247 10.9655923744 3.7016814421 6.3149359633 -0.0491095009 4.4080730259 12.2026751045 9.8072442892 5.7451625920 12.7454452227 13.5549027876 4.8688989159 0.8586509916 4.1644443140 5.5832834054 4.5759722680 0.1714568257 5.6177260666 1.0214531942 0.3738373972 5.1876602864 5.5943143261 10.2721715131 5.6494110133 13.6520575602 7.3572978845 5.5822222665 4.4420656072 6.7495964925 5.6702965715 7.3725187922 9.4829946741 5.3478580013 2.2032509715 10.5533044278 5.6037373680 7.6663785936 0.2600208164 5.7350785782 3.0194491523 1.1020198661 5.9138390401 2.2662101679 2.9334117255 6.2377551255 12.7703148176 3.6062336319 6.2516808346 5.9977463511 1.2960095311 6.2477454457 3.9729330672 9.5224661565 6.5587405856 0.3802571248 10.0151970946 6.2166619696 6.7040537103 4.6184462745 6.3000007464 11.6059228561 12.7296860745 6.4177372020 9.8648918302 12.9311247595 6.7013363836 8.3767747525 8.2474555070 6.4815403719 11.7106847123 4.9674172513 6.5130975884 0.5636503861 1.7371402403 6.4167792055 8.4163283490 1.6465346172 6.8435971883 11.7083719520 8.4631713849 6.8494130915 -0.2239305944 12.9151157536 7.4056396190 6.8951299202 7.3147120527 6.9292706447 3.8527041468 7.5390918130 7.4832640472 0.2490889243 7.7632720544 7.3863593678 9.2193041897 6.4716848841 7.4124514151 2.0805745704 7.5261817073 7.4430195945 11.4739319345 0.9977842030 7.3681785760 9.1031490714 9.5323172039 7.6330565199 2.2281670821 11.0070266608 7.5466724510 2.4541015862 3.5388674034 7.8741972209 4.4335188648 11.8562855422 5.7978850668 11.8862890488 10.9592858905 7.3933446230 7.5867687320 5.7428538058 7.7556116747 6.7776133602 2.8118077509 7.2851246332 11.0766926690 6.2876905583 7.9141504196 0.3512443217 11.1689285507 8.0413598391 9.7077965366 0.8260163837 7.9570410264 13.0908265905 6.3767715343 8.2050034055 4.3010118427 5.6659131616 7.8339963537 13.0334307367 3.1177103201 8.1532801290 13.3754746375 1.1030803640 8.3129796084 10.7965424377 9.4306922721 8.4157537557 7.3730310437 12.4132647487 6.7005359297 7.8641898946 3.8664985911 8.3793024285 4.1330563643 11.2543972942 7.8939760463 5.0192955599 3.3463484492 7.5216679209 -0.0098027585 9.2036688945 8.7323020000 1.4846508244 1.0315682456 8.9110806379 3.9440683253 3.8560344882 9.0402698663 4.1474671310 7.8707953162 9.2277738219 11.0233336147 5.0563189306 9.1515353498 7.5370120673 11.6928772906 8.4620385779 10.9513051424 7.7698502949 9.0875684753 12.7643159647 4.4520591213 9.4264216768 6.3882864525 12.6062508136 9.6961139714 0.5763118788 11.6731485866 9.6903370445 8.9681028470 12.9832226520 9.0898790732 4.4430388543 13.2179425531 7.8822804230 5.7803608195 3.9236441226 10.1148440790 9.3178876439 1.8436117354 9.5026383996 7.6772064366 2.8609793466 10.1841262003 0.6606959573 5.1037470394 10.3516173980 2.2911145682 1.1694491388 10.5213470253 12.6103171655 0.7536475050 9.8900172943 7.7440824822 10.5214792158 9.8391821767 5.9388640888 10.6226805283 7.5900077630 3.9538518977 10.9514346039 9.6410419262 3.9318140420 2.0356102723 9.6035995283 12.8856966758 7.3761389383 11.2727851947 7.0213777941 11.5415196176 11.1690886047 9.0862719535 0.3954203889 10.9002799547 12.7681705897 9.0423448710 10.4822023255 3.8002615943 6.8191964895 10.7428400415 1.2140646374 0.0452710347 11.4255556456 12.4134085734 3.4304667404 10.8265596667 5.3237417465 6.4707131001 11.6720450763 6.5184877321 1.6871137478 8.9067509697 0.6775880284 11.7781280703 11.5644791709 12.7782121031 12.4962045100 12.3265754179 6.5661029511 5.3777545094 10.8279491373 1.7978463811 2.7282698655 11.2944015753 3.9007055376 11.7244028261 11.3082605781 7.9953439605 4.3117461466 11.2522637409 0.0930092052 9.9718669404 11.6313155537 0.6873757631 6.3186665296 11.6979365753 3.3934172193 5.1506692225 10.1856466502 8.3140866349 12.5133062653 11.8204051027 10.6204343156 0.6511600344 11.7612802967 7.0849871326 6.3187309912 9.3829522209 0.2496293289 3.4241103673 12.0061944846 5.0834687903 0.5694962145 9.2974475270 2.4161115253 11.3727443371 12.1892346854 5.4696034099 11.2460373326 12.0983234588 3.9591217591 13.5203677519 10.7888770819 0.4248848184 5.0057921959 12.9460656306 11.3000838613 10.1012930592 10.0266569279 2.2959252370 7.2202349617 11.6715185999 7.7012977252 1.5152196492 11.3926327242 13.1782216738 1.9306952762 12.8040042849 12.4929620604 0.5923839431 11.7451895100
6.9813948995 4.2277516361 1.6562511715 7.9885554703 3.4561764563 2.9730016115 1.6682229723 11.2064570093 1.5700574852 1.8396759009 9.6604507796 2.7701033625 7.7645267042 9.5960344604 3.2988871706 13.5166116987 5.6568387469 3.4072921480 2.5674986108 12.4831939645 2.4309679849 12.9114845541 13.1074075903 3.1409137327 11.0640673146 6.8450484415 2.6407396389 13.1368782561 11.3499448798 3.3218042949 5.5254161095 0.8610305698 1.4425004950 6.4902590057 9.6512073826 1.7872759577 7.6877152022 13.0030769711 2.2313188023 11.0146579100 10.9166118400 3.1843125119 0.4580302201 8.3312270807 2.7183168617 5.8910278960 13.0387311074 2.6620893199 4.5151049738 11.8985254946 1.8425387556 4.9586268071 10.1155339193 2.4429417590 13.1743648951 0.6699254128 1.7250313618 3.4227513048 8.8993656823 2.1718294444 8.9252271644 4.8957985246 3.3650523309 8.4224326322 8.0773651290 2.6625401079 5.4480743546 4.2226373760 2.5153807668 10.9478375978 12.7710021032 2.5598159221 9.1719204031 10.7111500276 3.1877754195 9.2462835093 0.1240647231 2.7631880060 0.5903920303 3.3109846636 1.9175249303 6.0032731851 11.0354421096 3.7608034835 8.9351750534 1.9179423611 2.5405846450 1.4724451817 2.2834026656 3.9946357350 0.3919745782 3.8680234495 3.6512738020 12.0764458822 8.3584178059 2.6081201243 5.1975696619 5.9745737876 3.1781853407 11.4425561429 9.7150013880 1.6330956101 4.0381228485 1.5565288346 2.0891317237 2.5217760305 6.3592865968 3.4042300341 1.0377002627 1.6257363791 2.2155241309 11.2763375562 11.4056202356 5.0814689701 3.9708238117 0.3325380473 3.5103083695 9.4054270252 6.6831608651 3.4753060792 3.9816572426 3.3255304378 1.8237731933 11.8403127277 9.1493706968 4.1382405050 4.0435269844 7.2235851177 3.8617838114 2.5001034627 0.7561917299 1.4310545735 4.9517171249 8.9391684137 4.1096921133 0.9370066297 6.9746252204 4.0710333457 8.9853754010 0.0663185246 4.4500409171 2.1636615613 8.8544008862 4.5299077034 12.5806570283 3.1618943082 4.4909156692 1.4350050392 12.2617600432 5.5684807563 6.2933727466 3.1120016735 3.7399274539 1.2444017797 13.4568175310 3.3642347238 5.0167605659 4.9710360197 5.9439779113 3.7027184831 3.9142894179 5.2566630004 9.2468290795 7.2988865893 5.1238277396 2.7844152696 11.0975648487 3.7336641197 6.1287362690 -0.1621122250 4.4766126253 12.3164957960 9.9694548908 5.8304727420 12.6738993380 13.7821529906 4.8551006530 0.9372015693 4.2672410357 5.6166918155 4.4896471144 0.0829265781 5.6031913147 1.0418625030 0.3589382879 5.4345607884 5.6899873073 10.1564694494 5.4170056084 13.8410957551 7.0935802543 5.7193911350 4.2079801774 6.7904373005 5.5950728199 7.4136879203 9.2642471012 5.1418178953 2.3143093882 10.4679422710 5.6243406500 7.5223449711 0.2195912146 5.8179709680 2.9173980899 1.1102922122 5.8078707586 2.2792193581 2.9218543900 6.1214678419 12.9267379020 3.6169730179 6.2440772689 5.8665756582 1.2343257843 6.3594611326 4.2167849378 9.4838610004 6.5529746873 0.5480825774 9.8417647721 6.1571692339 6.8153159061 4.7447877762 6.2786399332 11.7238278545 12.8922410779 6.3643516102 10.0156234300 12.8878650198 6.8379397933 8.3224366601 8.0972535581 6.5021814559 11.8104289289 5.0077736025 6.5468801082 0.5324310207 1.7719876608 6.4871169078 8.4197187760 1.5104672031 6.8289114777 11.5764154349 8.5822266872 6.6594445720 -0.1659647911 12.9882537562 7.2996368465 6.8035918178 7.3861568317 6.9813729153 3.9329263091 7.6111557852 7.6135174611 0.3004381792 7.6571481705 7.4711626278 9.1842485391 6.4560892561 7.4252770176 2.1894368686 7.5742861118 7.6611503381 11.4211870012 1.1081321632 7.3594963569 8.9872969137 9.6251508855 7.6359298014 2.3602095589 10.9085865878 7.5096002383 2.5980424319 3.7206162167 7.6988257471 4.3478962457 11.8205467846 5.7770141036 12.0789075202 10.9917315802 7.4482262245 7.5247212846 5.6945600492 7.8178774326 6.7015687343 2.7854658268 7.2858294153 11.0899222692 6.2598425244 7.7522055173 0.4977091356 11.2327767630 7.9682767545 9.6526973406 0.7188956880 7.9510062922 13.1496917845 6.2894802474 8.2272248847 4.5645578991 5.7314365371 7.6933542830 12.9977466700 3.0773667278 8.1667961618 13.1468178836 1.0224795534 8.4115374631 10.7918062973 9.4271514913 8.3794164694 7.4857433742 12.5828640227 7.0326728007 7.8092596611 3.8579683424 8.2848422941 4.2911359199 11.1780400424 7.8742147706 5.0656665299 3.4995221805 7.3569883814 -0.0861433294 9.1985979926 8.7583777086 1.2606230507 1.2468995345 8.8512531275 3.9876989715 4.1744380518 8.9029197478 4.1816466235 7.9186478149 9.3476031033 10.8450527787 5.0902111324 9.1101297844 7.5942502007 11.3743933343 8.4922832385 11.1222891444 7.7262269716 8.9943559872 12.5460495359 4.3919530947 9.4384739859 6.3349911427 12.4266838825 9.6697550641 0.8327696299 11.8994800881 9.5344028879 9.1481493062 12.8482277134 9.2327456674 4.4557298883 13.1461944763 7.8012290105 5.5907631176 4.1095627633 9.9624783766 9.5298166250 1.7930530318 9.4790743869 8.0540761811 2.8432870278 10.0583141622 0.2927456825 5.1397926447 10.5523635082 2.1904960219 1.2882264599 10.3600048608 12.4731181808 0.3971881347 9.9311589763 7.8812800989 10.4232669264 10.0588409696 6.1314291536 10.5701158445 7.4862182661 3.9909043585 10.7895925208 9.5955778286 4.0056075503 2.0281520170 9.3552921291 12.7822176225 7.4755572235 11.5676723747 6.9770847388 11.5691542526 11.2339578452 9.2012854003 0.2870264857 10.9495879341 12.6337506833 8.9893741880 10.3842742692 3.7264814717 6.8807817051 10.8685128652 1.0832800763 0.1325595899 11.2452718569 12.1999728186 3.2261872639 10.8050511420 5.2363038360 6.4452589732 11.7473798874 6.7379915296 1.6895838364 8.9122200024 0.7864289828 11.8588211490 11.5256202046 13.0006666636 12.4931756208 12.5788594433 6.5169081138 5.3627571669 10.8269536527 1.8125218948 2.7383877370 11.2140769689 3.8723037609 11.7203324164 11.1884318880 8.0422001482 4.3440325386 11.1442323701 -0.0291986743 10.1827489342 11.3178495196 0.4842043326 6.2534040324 12.0059307223 3.1197237059 5.3916766733 9.9704785635 8.1849782895 12.5713797566 11.9377223957 10.6539416689 0.5214597883 11.9694201447 7.0118657949 6.3581505176 9.4035186578 0.1495554674 3.4142403220 11.9225223397 5.0955557959 0.5833685788 9.2749049584 2.4076344597 11.3771564991 12.1787042879 5.3424089363 11.1812251722 12.0530682096 3.8212139190 13.4985330374 10.6450734035 0.1968471860 4.8122998694 13.0779428975 11.1101638074 10.0666013569 9.9437583756 2.2159442240 6.9793245904 11.9942636664 7.9596456217 1.5670325873 11.3775794679 13.1376495607 1.9173283821 12.7604622337 12.5303493783 0.4371269330 11.8719871298
6.8422341747 4.0896056514 1.6097699109 7.9320263707 3.4063768229 2.8363703544 1.9885337244 11.2152690978 1.4542743278 1.9999846369 9.7280430795 2.6453561825 7.8164161370 9.6449461358 3.0218544894 13.5010060194 5.8311061471 3.5395066887 2.6733529374 12.5200681353 2.4660201159 12.6991975987 13.1715127113 3.1823477148 11.0245724967 6.8951788699 2.6389394911 12.9856791038 11.3975122543 2.9776259871 5.5046857169 0.7321173530 1.4553665342 6.4358342548 9.7669209216 1.6659043381 7.6783581173 12.8822452422 2.1309705856 11.0879477812 10.9260304459 3.1678336866 0.3414200902 8.4967415970 2.7144514558 5.9258896994 12.9130790322 2.6881608934 4.4598152414 11.7761375820 1.9427648735 4.9892772146 10.1054865405 2.5379582258 12.9685593048 0.7147377006 1.7777606582 3.4524095086 8.9583377515 1.9940120945 8.7823749983 4.9125129301 3.3961623000 8.3030577908 7.9853697806 2.6827219464 5.3874315506 4.3601547836 2.6898570393 10.8768251095 12.8913491842 2.6430111517 9.1889009587 10.6912211817 3.1463444453 9.1251862052 0.0176936798 2.9426889513 0.4429372879 3.2658880484 1.8134173709 6.1568683509 11.0160501918 3.7931417967 9.0174279562 1.8241105723 2.7170246650 1.3394071525 2.1987740847 3.8250322425 0.2191472179 3.9295277998 3.6298120439 12.0683373138 8.3330366830 2.6666780644 5.2046552545 6.0985047921 3.2217428668 11.3102944669 9.7462629635 1.7986221749 4.0953642826 1.5506710482 2.1402181736 2.5234560904 6.4379158318 3.5219979597 0.9382799571 1.5829210319 2.1505646590 11.4320024154 11.4547280267 5.0423449091 4.0762059475 0.2300547012 3.5786477597 9.3674798082 6.6729612882 3.5278861065 4.1060141624 3.3240237108 1.8213991721 11.5219245061 9.2007987065 4.1860514927 4.0333419441 7.2463384898 3.8960061327 2.5805284381 0.7639789663 1.3850598873 4.8916376409 8.9424149441 4.0681105980 0.9625632934 7.1939854091 4.0829754861 8.7660079328 -0.2501738059 4.5642356615 2.2930586317 8.8293668873 4.3737369971 12.4481591618 3.2494346841 4.4785804192 1.5743704970 12.1591532465 5.7034880921 6.2922902958 3.1835220635 3.7695745487 1.2068920699 13.3705568847 3.4154144412 4.9636664182 4.9731282038 6.1825953603 3.7456360854 4.0333637709 5.1159182732 9.4292941265 7.4684363822 5.1114341656 2.6944683118 11.0429685826 3.7782911842 6.2181752545 -0.2172965505 4.4941042217 12.3260778326 9.8349513602 5.7942458871 12.7055641007 13.7670166950 4.9829993446 0.9403909744 4.2581988194 5.4754796291 4.5857381156 -0.0235896483 5.6714105942 1.0760965509 0.2457686627 5.4145634858 5.6573383567 10.0566017561 5.4690632519 13.8316504837 7.4962388498 5.6795801656 4.3590803008 6.7903758729 5.6815910931 7.3842135634 9.3128073306 5.1307929507 2.3781342977 10.4049516940 5.6885480184 7.5620577503 0.2043310992 5.8203280701 3.0127191901 0.8929242455 5.8328871426 2.4216760298 3.0515072301 6.0785632822 12.9186942988 3.6995885390 6.2461467554 5.9604087554 1.1888544816 6.3785652621 4.0745484428 9.3104618938 6.6567080875 0.5333807092 9.8896915746 6.2694921571 6.7855168219 4.6118875331 6.1473837258 11.6908721479 12.7204493841 6.4095027793 9.9787319150 12.6925846464 6.9063816791 8.3918026983 8.2410200627 6.4843040534 11.5512279417 4.8960292353 6.4405450492 0.7243875225 1.9417500564 6.2789864807 8.4338425178 1.6479174737 6.7933990270 11.7718964773 8.5671594516 6.9078311187 -0.0833059275 13.1112609332 7.4033308740 6.9358133101 7.4880767776 7.0734903037 3.9260223320 7.5854152707 7.7013699326 0.3164403543 7.7400037235 7.5131331529 9.1780571786 6.5716837463 7.4325708092 2.1488551247 7.5800812462 7.6884939242 11.4494151116 0.9386807045 7.3897091104 8.9369491138 9.6865561289 7.6265665944 2.4494240276 10.9323300867 7.6273500915 2.4317935892 3.7927396239 7.6469957534 4.4167612142 11.5400212458 5.7275531286 12.0889336661 11.0637952642 7.3392459475 7.5455351389 5.6990318932 7.7419243205 6.8395033204 2.7984666436 7.3542334236 11.0556034115 6.1810389438 7.7852472854 0.5616775211 11.1094629997 8.0023538704 9.6858073088 0.6419625690 7.9914073779 12.9694364687 6.3269930611 8.1454997905 4.7120185836 5.7404867708 7.8850041940 12.8777779750 3.2512955542 8.1427134808 13.1811768568 1.1674759886 8.3634194552 10.6979915768 9.5422371173 8.2989785639 7.6234767654 12.4658923616 6.9088534254 7.9597049330 3.9106184582 8.3718560258 4.3131255005 11.1659185707 7.8766765427 5.0389422733 3.3573901039 7.3253514975 0.1306962641 9.2243196159 8.7231168876 1.3374951723 1.5456747109 8.8336276106 3.9235137092 4.0987072367 8.8368700097 4.2488312173 7.8283797921 9.3994431745 10.7813234298 5.1505821088 9.1891406534 7.5556667220 11.3040259575 8.4081999391 10.9068393686 7.9299325850 9.0294039010 12.5419102439 4.4244690518 9.5014414684 6.4519181245 12.5864536687 9.6516014618 0.8839009251 11.6364852956 9.5901958532 9.0441474693 13.0302692598 9.2401105036 4.5388410285 13.0960298322 7.8451096120 5.3636976897 4.0632019602 9.9437714908 9.7108033592 1.8413890265 9.5164599220 8.1267326095 2.7536527527 10.1200814801 0.2689029670 5.1021390985 10.6125110364 2.2075921739 1.3206510284 10.3465658041 12.5803956269 0.6547387123 9.9022200538 7.7631646876 10.4208619618 10.0218240081 6.1609103728 10.5100648757 7.4609132964 4.2794260213 10.8442617523 9.5877135151 3.7916317813 2.0918685394 9.2867628149 12.8418947785 7.5503829833 11.4975237693 6.9404835146 11.6340170615 11.1458129757 9.1637917718 0.2164277035 10.9938903495 12.6488515584 9.0108568640 10.4010467513 3.6244004531 6.7865652362 10.8098849629 1.2136076329 0.0652830673 11.2997671392 12.2665481780 3.1929663676 10.8164962868 5.1306018765 6.2637966695 11.6795844417 6.5194803524 1.9055087614 9.0232312903 0.7524245341 11.7780353062 11.4733974269 12.9170489446 12.4512790821 12.4260970550 6.4484435429 5.3101673564 10.6775964259 1.7025805074 2.6923146736 11.3119961658 3.9978923011 11.7353107371 11.1761339960 7.9356798021 4.2685174532 11.0871540909 -0.0068336785 10.0772586956 11.3719634324 0.4507303808 6.2916002880 11.9586720225 3.1479934044 5.3512594331 9.9050109637 8.2021328891 12.5692614977 11.9149546935 10.6929366963 0.5555353934 11.8407066582 7.0481050678 6.3607781066 9.3658189047 0.0917065670 3.3919770061 12.0314067302 5.0289744014 0.6957065110 9.2069678171 2.4945387377 11.2396616959 11.8771136348 5.4498487331 11.2211144677 12.1009605787 3.9590060027 13.5507000421 10.6285774907 0.3166465668 4.8999998407 13.0966102351 11.2918499074 10.2450803287 9.8435357566 2.0842517346 7.0272571041 11.7827748673 7.8563254631 1.4557487591 11.3462108667 13.1266087039 1.8477991454 12.8922600367 12.5035933591 0.4717558160 11.8165389940
6.7615461821 4.0861901434 1.5056687455 7.9229673827 3.4769072336 2.7744645685 1.8625682898 11.2285722793 1.4829965449 1.9977329129 9.7664558692 2.5175806468 7.7122613854 9.6516386714 3.1005171358 13.5791669000 5.8306835426 3.3425905795 2.6465833488 12.5173030039 2.5960289589 12.5809037906 13.1299909565 3.1665505040 10.8343740053 6.8983329841 2.6645203969 12.6708198008 11.5079098365 2.4471758881 5.6594459653 0.7911962110 1.6531141448 6.5224907648 9.5659307313 1.6777413368 7.5686480450 12.7659515959 2.0471920970 11.0283971587 10.8031929888 3.1723180952 0.4279714682 8.5818577423 2.5972441592 5.9478862681 12.8769816727 2.8414102815 4.6763137473 11.7677141262 1.9231038540 5.0417732207 10.0404918782 2.4117316017 12.9867076742 0.8805286296 1.9433955789 3.5323165529 9.0684290351 1.9619567838 8.7003317835 4.9429691589 3.5241806127 8.1315855431 7.8999445150 2.8680396000 5.4585125289 4.3690189066 2.7142812141 10.7345437962 12.8309450171 2.9762335136 9.1601492009 10.6571464907 2.9020992014 8.9340085627 0.0181667525 2.9272091329 0.1622308757 3.3562461439 1.7616593109 6.2708990643 10.9573992094 3.7293500782 8.6946004071 1.7831215879 2.7784344428 1.4347410912 2.3612615314 3.7350808088 0.1368054767 4.0627135081 3.5227544219 12.0106504248 8.2295020409 2.5596701983 5.2336500843 6.1941199453 3.2138585101 11.3009888076 9.4715931815 1.5718060314 4.1517022861 1.4053288737 2.2646113299 2.5344446224 6.3838299515 3.7112658661 0.9726928369 1.7194394430 2.1129693819 11.5808783928 11.3045322545 5.0564922784 4.0057910664 0.0874643017 3.5812192340 9.2792011324 6.6864265511 3.4975102900 4.0418250530 3.2110048330 2.3052892166 11.5778517662 9.1387259672 4.0944402503 4.0504056289 7.2111799870 4.1318538672 2.5812241833 0.7062724633 1.4428400698 4.9738351705 8.9286887734 4.1872186166 0.9647706398 7.2563075673 4.0477839002 8.9655401549 -0.3398166595 4.6439645246 2.2403945586 8.8308295139 4.5186782758 12.3171336205 3.3937917317 4.4834400429 1.8009026313 12.2493651283 5.6647812572 6.5567063380 3.4503598779 3.9144341149 1.1494438891 13.2828532340 3.4562222582 4.8855020284 4.8638774828 6.2583298817 3.8283299024 3.8860987409 5.0785599402 9.4433437564 7.6582333210 5.1215460015 2.8679708645 11.0246664303 3.6902683846 6.2836494565 -0.0605993459 4.5477832797 12.4772853786 9.7482377168 5.7311217268 12.8196295560 13.5079053513 4.9925760266 0.8272798355 4.4105114157 5.4494193168 4.5925386377 0.0273250427 5.7656068077 1.0848553303 0.2533487920 5.4140061637 5.7409846410 9.9919502574 5.5651031563 13.6552754520 7.6107171907 5.5469548208 4.3291162175 6.7292381282 5.8003157847 7.5428784782 9.5121721200 5.0857713638 2.4691126127 10.4722240794 5.6259210019 7.6102011517 0.1693936083 5.8409440386 3.0090952516 1.1482902998 5.8197783420 2.2718980905 3.0997255717 5.8875666794 12.8492607411 3.7762829059 6.1705703995 5.9513083844 1.2120096151 6.4411101953 4.0807587946 9.3670176857 6.6361912047 0.6195044924 9.9384839402 6.2119982254 6.7432158534 4.7175684089 6.3618831873 11.8218740570 12.6938738255 6.6116498460 10.0760410916 12.5610941293 7.0944072144 8.3773250176 8.3729455951 6.3642020567 11.5731236355 5.0806085419 6.5745664152 0.5544814874 1.8788932319 6.3939528378 8.4335963458 1.4913118379 6.9461849830 11.6360451191 8.5669636019 6.8558889180 -0.0024239418 13.0056129055 7.3515438981 6.8891621718 7.3793434953 6.6364495765 3.8866933599 7.5911065206 7.6056947764 0.3648527937 7.8114506225 7.5082742068 9.2715234571 6.6307609891 7.3785124673 2.1029824089 7.2253883079 7.6088340327 11.5243457521 0.9825719349 7.2747580364 8.9339003670 9.8613325587 7.5943816744 2.4530192402 10.7921305172 7.6477231592 2.4804570036 3.7064862605 7.4493861854 4.4490063338 11.6181753953 5.7264008560 12.2147379992 10.9241512417 7.3734711554 7.6442389861 5.9398725497 7.6978907623 6.8090074768 2.7701965913 7.3428886542 11.0294369357 6.2665060652 7.8805242274 0.5391410655 11.1706313317 7.9986687657 9.8091996594 0.6594358664 8.0357036538 12.9985287844 6.5715283282 8.2782873602 4.4073257979 5.7038907652 7.8745964497 12.7981697275 3.1618510423 8.1321747464 13.3151600679 1.3171527410 8.2706274753 10.7464511313 9.5676358643 8.3837492750 7.2379950273 12.5179812691 6.8857793367 7.9617667042 3.8531452920 8.3637265920 4.2834873429 11.1267287118 7.8561130187 5.0506803504 3.2890585879 7.3597526316 0.1195061122 9.2017267902 8.7854880150 1.3936074128 1.3494989418 9.0252921661 3.8802696209 3.9574813345 8.8819144121 4.0948201472 7.9282718849 9.3515232197 10.9183777758 5.0813429768 9.1838086634 7.5962948860 11.2599620751 8.3399882738 10.8307713313 7.9641159583 9.0573013414 12.5775290061 4.3540307811 9.5874916278 6.5213101523 12.5891250272 9.5283303618 0.7132063272 11.6505396104 9.6135596592 9.1474021602 12.9523791663 9.2776334802 4.4512344566 13.0938772089 7.7198855995 5.4039987975 3.9163811303 9.9644326447 9.5534139607 1.8469014191 9.4433775965 7.9805739990 2.7614313130 10.1226645591 0.4964494942 5.1939760785 10.4521997965 2.2971137952 1.3265198281 10.5623282053 12.6099068903 0.7456508795 9.8217960507 7.5904212388 10.3615125583 9.8954169300 6.1032807545 10.3723089611 7.5208985052 4.3403005123 10.8402220652 9.6168768537 3.8142075080 2.0677967568 9.3295003858 12.6565642376 7.3588379675 11.3297940113 7.0410897345 11.6747456919 11.0589130155 9.1097838966 0.1998394742 11.0116669991 12.6702654600 9.0802616535 10.4740387663 3.5459435840 6.6219877284 10.7361200247 1.4141627397 -0.0338505234 11.2068291793 12.2450794504 3.2943449129 10.9482733499 5.0705345331 6.1363735843 11.6082540112 6.5894616888 1.7351196577 8.9675347059 0.7732694634 11.6890704393 11.4616368868 12.9017647189 12.4659912670 12.1387505084 6.4257452853 5.2226845297 10.7332404506 1.6980127229 2.8226484934 11.4066726973 4.0171515911 11.7830163060 11.1568866540 7.7959322241 4.1933064668 11.2250514722 0.0304810295 9.9658142963 11.5826743726 0.4697891766 6.3609617521 11.7772332972 2.9840298856 5.1710053842 9.8875446137 8.4200027311 12.3597688098 11.9547311450 10.6909208116 0.4288306760 11.8441822865 7.1125938838 6.2254594041 9.4022717431 0.1208072713 3.4029889781 12.1732050756 5.0582527621 0.6689522455 9.0843705005 2.5600411497 11.2409718516 11.9949356905 5.5440821412 11.5681848394 12.0821861056 4.1266119485 13.6403403525 10.6000478546 0.1984801017 4.9776907416 13.0497940025 11.4924563889 10.4057278498 9.8954724046 2.1233212523 7.2598663373 11.6949468824 7.7851483001 1.4337904389 11.3787376383 13.1590008842 1.7865888775 12.9179320972 12.4932005741 0.5817089941 11.7050598384