-132840.8993015
-132833.2124038
-132833.6625093
-132834.2238548
-132833.1647472
-132834.1399815
-132833.8030388
-132833.9244358
-132834.3502073
-132834.5384818
-132834.3117161
-132835.1173422
-132835.2585821
-132835.1813598
-132835.6823317
-132835.2683383
-132835.6368275
-132837.2776977
-132836.9216748
-132836.4474481
-132837.2544930
-132836.7190316
-132836.9834792
-132836.9682889
-132837.2552656
-132837.2148467
-132836.9970242
-132837.2520459
-132837.3941869
-132837.3511061
-132838.1488764
-132837.7990210
-132837.3349806
-132838.2809503
-132838.1016747
-132838.6448319
-132838.0623458
-132838.3450074
-132837.4364579
-132837.4057911
-132837.9599802
-132837.3963855
-132836.9407675
-132836.9661555
-132837.6868724
-132837.3809431
-132838.0686905
-132837.5913795
-132837.4862785
-132837.6041937
-132837.6023358
-132837.2791057
-132837.5049562
-132836.9819131
-132837.2018619
-132837.0479137
-132837.6823256
-132836.9569154
-132837.3359829
-132837.1953725
-132837.9630216
-132836.9345234
-132837.6107616
-132837.6345115
-132838.0077640
-132838.0422369
-132837.8682844
-132838.3016236
-132837.8533896
-132838.2068021
-132838.1410536
-132837.8970113
-132838.7150482
-132838.2622934
-132838.0340648
-132838.6026293
-132837.9425455
-132838.4414434
-132839.2268374
-132838.9267265
-132838.8206754
-132838.7869459
-132838.8530784
-132838.2951552
-132839.0487124
-132837.8523648
-132838.8219489
-132837.9795469
-132838.4646278
-132838.1556450
-132837.8992601
-132838.5724531
-132838.9588479
-132839.1059326
-132839.0531886
-132839.3332343
-132839.1154434
-132839.4561480
-132838.6638175
-132838.5729198
-132838.2387620
-132838.7663103
-132838.6795407
-132838.3279555
-132838.6069287
-132838.1498331
-132839.0943219
-132838.4203259
-132838.1367297
-132838.8194805
-132838.8011071
-132838.1655258
-132838.4798525
-132839.4443167
-132838.5378415
-132838.8969317
-132839.1722145
-132838.9675014
-132838.5930795
-132838.7000911
-132838.8374139
-132838.4061540
-132838.2975653
-132837.9981581
-132837.9221819
-132838.1329624
-132838.7019956
-132838.6473608
-132839.0225253
-132838.3805964
-132839.0483991
-132838.5028936
-132838.6967908
-132838.1555103
-132838.1980703
-132838.8321440
-132838.2247316
-132838.5117980
-132838.1791538
-132838.4333158
-132838.6318019
-132838.1974639
-132838.1788346
-132838.5745114
-132838.3866648
-132839.2759612
-132838.4118605
-132838.9100087
-132838.7937056
-132838.5077630
-132838.5414115
-132838.7707038
-132839.3124719
-132839.9494042
-132838.9092954
-132838.7296529
-132838.7486906
-132838.5470374
-132838.6125685
-132838.9499980
-132837.7010163
-132838.8064341
-132839.5672195
-132838.8665621
-132838.5661325
-132838.4489784
-132839.5387906
-132838.3001503
-132838.3761635
-132838.2349217
-132838.3272078
-132838.1996641
-132838.5550219
-132837.8819179
-132838.4418271
-132838.6838061
-132839.0093290
-132838.8126493
-132839.2496141
-132839.9061733
-132838.8117260
-132839.4395026
-132838.8066055
-132838.4422647
-132839.0033152
-132839.5721457
-132839.2141336
-132839.2679048
-132838.1780081
-132838.9779635
-132839.2275338
-132839.0928882
-132839.6411043
-132838.6907668
-132838.8932415
-132839.3039024
-132838.9631757
-132839.6854492
-132838.2989606
-132838.9705021
-132838.9080278
-132838.7770708
-132838.4978630
-132839.5293231
-132839.4969657
-132838.9638108
-132834.6946441
-132835.4333555
-132835.4633907
-132836.0421041
-132835.0881061
-132834.0126165
-132834.7274014
-132835.3766819
-132836.2926927
-132835.5277525
-132835.6650269
-132835.7500991
-132834.1293581
-132834.3219011
-132834.4099021
-132835.1345087
-132835.1500222
-132834.9508896
-132835.0270485
-132835.1967175
-132834.8234009
-132835.7325672
-132835.8564535
-132834.8862951
-132834.8557371
-132835.5331620
-132834.8034482
-132836.0210068
-132834.2462994
-132835.4408136
-132834.5527067
-132834.7854181
-132835.5610315
-132834.8990202
-132834.7981132
-132835.3400077
-132835.0562879
-132835.0359173
-132835.5510158
-132834.9087774
-132835.5151893
-132834.4224947
-132834.0322943
-132834.4159103
-132835.4366447
-132834.6749356
-132835.0753744
-132835.9708668
-132835.6564182
-132835.1398140
-132834.4006444
-132835.2110545
-132835.5978341
-132835.5796995
-132834.3784061
-132834.6044668
-132833.7406190
-132834.1594343
-132834.8049256
-132834.8124461
-132835.2578365
-132834.7479099
-132834.6034063
-132834.1727529
-132834.9348601
-132835.1908433
-132834.6163953
-132835.0725704
-132835.5011381
-132835.5606478
-132835.5221649
-132834.6755519
-132835.0093956
-132834.9946939
-132834.4079802
-132835.0900395
-132834.2641036
-132834.7108333
-132834.7030934
-132834.8673700
-132835.1966030
-132835.4834834
-132835.9994045
-132834.8328096
-132834.4971989
-132835.1428473
-132834.3364922
-132834.9155828
-132834.8917073
-132834.7538439
-132836.5611461
-132834.8918980
-132835.3417830
-132835.2050180
-132834.5070247
-132835.5725726
-132834.4959969
-132835.3004368
-132834.6546841
-132834.1918633
-132835.0949737
-132834.7631076
-132834.6578065
-132835.4936400
-132835.5041560
-132835.3170328
-132834.5618027
-132834.8624944
-132835.0712196
-132834.2093392
-132835.7110880
-132835.1564673
-132834.9103337
-132835.4870519
-132835.4339444
-132835.0714512
-132834.5526741
-132835.7384880
-132834.8377628
-132834.8744022
-132834.8097385
-132835.6432865
-132835.4472696
-132835.2231076
-132834.5271967
-132835.4083713
-132835.4195270
-132835.0972899
-132836.1506271
-132835.2932238
-132834.9117184
-132834.8042935
-132834.9170938
-132836.1857504
-132834.7488515
-132834.9942040
-132835.1505184
-132835.1048623
-132834.9724098
-132835.6111628
-132835.5799999
-132836.1901346
-132836.1483839
-132836.5014837
-132836.1254730
-132835.3967276
-132836.2974578
-132835.9407424
-132836.4514149
-132835.3527561
-132836.4436441
-132836.0043291
-132836.5843880
-132837.1005526
-132837.8066443
-132835.5504167
-132837.0505488
-132835.7220298
-132836.7082348
-132835.8512816
-132836.8180397
-132836.0079256
-132837.1182767
-132836.3417285
-132836.8501694
-132834.1228370
-132833.4532214
-132833.1757546
-132833.4485074
-132833.9035589
-132835.1612262
-132834.8219330
-132833.4213267
-132835.1115180
-132834.3335928
-132833.7864276
-132834.3659533
-132834.2513903
-132835.9280223
-132833.0902600
-132833.7376547
-132833.7979771
-132834.2508925
-132834.0438000
-132833.9644348
-132833.1218270
-132832.9316447
-132834.4919218
-132834.3009024
-132832.9790707
-132832.5910337
-132833.6898457
-132832.8370680
-132834.3226248
-132832.7057726
-132836.8873325
-132837.6495874
-132837.8872501
-132837.2465705
-132837.7439620
-132838.6472728
-132837.2948388
-132838.3463465
-132837.6835733
-132837.9833552
-132837.6469060
-132838.1243023
-132838.5445545
-132838.0337421
-132837.4492200
-132837.2929533
-132837.8213564
-132837.5660205
-132836.7245608
-132839.0259259
-132838.7339058
-132838.1838438
-132837.9655813
-132837.0900591
-132837.5412216
-132837.5255730
-132836.7187165
-132836.9503345
-132835.9452245
-132836.8189203
-132838.3601922
-132838.3217820
-132838.1743117
-132838.8705882
-132838.4249826
-132837.9108725
-132838.9885739
-132838.6653830
-132837.6159521
-132837.8705609
-132838.2830512
-132838.8791685
-132837.7294894
-132837.9679021
-132837.9199121
-132838.0344130
-132838.8001436
-132838.3003883
-132838.7113605
-132837.9721544
-132838.1558772
-132838.4674218
-132837.5855129
-132837.9139530
-132837.9889623
-132836.0267291
-132837.2409377
-132837.0502841
-132837.9749672
-132838.1838532
-132838.0785167
-132837.3450928
-132828.6115562
-132827.8506600
-132827.2010494
-132828.4619586
-132828.0757332
-132826.7648155
-132828.1579041
-132827.7936694
-132827.8122936
-132825.4593030
-132828.9920867
-132826.7670911
-132827.8550377
-132828.1983811
-132825.7319021
-132829.5311734
-132827.7411748
-132826.9279003
-132826.1318690
-132828.3307761
-132827.5830010
-132828.2553362
-132830.0884750
-132828.2571000
-132829.3436754
-132827.6799045
-132828.6612005
-132827.9037066
-132826.3758999
-132828.0671419
-132826.5346430
-132827.9212300
-132828.7153177
-132827.4833896
-132828.6221773
-132827.5650510
-132828.0603484
-132829.0615685
-132827.9729131
-132828.0511064
-132828.2484887
-132829.8918928
-132828.9643524
-132827.5960389
-132828.4260337
-132828.9969260
-132829.7278994
-132828.3080485
-132828.8307678
-132828.6948021
-132828.5299310
-132828.3188487
-132828.6162635
-132828.7565609
-132829.5682943
-132826.0262153
-132828.7628319
-132828.3785543
-132827.6432420
-132827.7089760
-132828.2817024
-132829.4129300
-132828.2115543
-132828.9005676
-132828.7813980
-132830.4534702
-132827.1267247
-132829.2302008
-132830.1176088
-132828.8987464
-132828.4361777
-132827.1491393
-132829.1827806
-132828.4883214
-132828.8495066
-132828.8961922
-132829.2000624
-132827.6879358
-132826.8263156
-132828.9485195
-132826.8937539
-132826.1902021
-132828.4769419
-132829.1315329
-132826.6166443
-132826.4833267
-132828.7119466
-132828.3527366
-132828.3043080
-132827.0853814
-132829.1746666
-132827.0298289
-132828.6717273
-132828.4008593
-132827.8771828
-132829.0312575
-132828.7462312
-132827.0202889
-132826.9995251
-132829.2939042
-132826.9958243
-132828.5107397
-132826.4022822
-132825.6745758
-132829.3375333
-132829.3463458
-132829.1829695
-132829.3434232
-132827.4970114
-132828.9117574
-132826.4085257
-132829.3924454
-132829.1461632
-132828.6551058
-132828.0908071
-132828.6351589
-132828.0200489
-132824.8505943
-132827.7439718
-132828.0458041
-132827.1623779
-132829.6422352
-132826.2476545
-132828.6167082
-132827.5439954
-132829.6557603
-132828.2985674
-132828.9080511
-132827.7936344
-132829.2808013
-132827.6653171
-132828.3619634
-132827.1811796
-132827.9270921
-132825.7961834
-132827.2147638
-132827.6599794
-132828.0905935
-132828.5198899
-132827.4274079
-132829.4754549
-132828.2799829
-132829.3758539
-132827.0224467
-132829.1211322
-132826.4535322
-132827.8867042
-132826.8039272
-132827.3416861
-132827.5010234
-132827.9036084
-132827.3901586
-132829.5867839
-132827.3705941
-132828.1305508
-132827.0161539
-132829.3191789
-132829.9205364
-132827.6130169
-132829.0534153
-132828.1874934
-132827.8845658
-132827.9296225
-132826.5921233
-132828.7208048
-132828.8782510
-132825.6870881
-132828.8127826
-132828.3283363
-132826.9819855
-132826.9274380
-132827.9485195
-132828.3663900
-132827.8248143
-132826.9711393
-132827.1846456
-132828.5657684
-132837.7730849
-132838.7047469
-132837.7955601
-132837.7980151
-132838.8349033
-132837.4771949
-132836.7904705
-132838.1522815
-132838.5791073
-132838.9219392
-132838.1786628
-132839.0561161
-132838.3289942
-132839.3977086
-132838.0407838
-132837.9131854
-132838.1609615
-132838.8344055
-132838.0104809
-132838.3765688
-132836.9312887
-132838.5625775
-132837.1635282
-132835.7851038
-132837.5510814
-132837.7921112
-132838.5311945
-132837.3565410
-132837.7819466
-132836.7245328
-132836.8712125
-132837.7375704
-132836.8412376
-132837.2306903
-132836.7695565
-132837.4019895
-132837.0242318
-132837.8514693
-132838.3569118
-132837.6366260
-132836.6582327
-132837.6765319
-132837.2590501
-132838.0401610
-132836.9592695
-132837.2642106
-132837.3612984
-132836.9016248
-132837.6476441
-132837.3951003
-132837.4492378
-132837.5784609
-132838.4766582
-132837.9680426
-132837.2295661
-132837.8681584
-132837.3631567
-132837.6832498
-132837.4657866
-132838.4814566
-132838.3244500
-132838.1021992
-132837.8144041
-132838.9547890
-132838.3497020
-132839.1081675
-132838.0019991
-132838.8332939
-132838.6504843
-132837.7799675
-132839.8514831
-132838.4729709
-132839.0873625
-132831.3911606
-132831.6087154
-132833.2142444
-132834.0873649
-132833.8978034
-132833.7421751
-132834.7251056
-132835.3980330
-132834.1518506
-132835.2446532
-132836.4904105
-132835.9751866
-132834.8986025
-132835.6290841
-132835.9976028
-132835.8574553
-132835.3467899
-132835.9843936
-132833.6067181
-132837.2103563
-132836.4445298
-132838.1924370
-132836.0022197
-132833.6378705
-132836.2039833
-132835.6456428
-132834.2061335
-132835.3631444
-132836.5219361
-132837.3655060
-132834.3850387
-132835.0601673
-132834.4408106
-132835.5320530
-132835.6338463
-132836.2523353
-132836.4320162
-132836.7497226
-132835.1305187
-132835.1532953
-132836.3175552
-132835.2783543
-132835.3066135
-132836.1041624
-132836.9347709
-132834.7741057
-132835.7387199
-132834.8351438
-132834.4637033
-132834.9002150
-132835.4446249
-132835.3114637
-132836.0874889
-132834.0110658
-132836.6122260
-132834.7610454
-132834.1097992
-132837.1347339
-132835.7509155
-132835.7521046
-132837.7999129
-132834.6893760
-132836.6330088
-132838.2026476
-132836.6049363
-132835.3238301
-132835.3334540
-132836.6312361
-132834.5956786
-132834.9478274
-132836.4876158
-132834.9604919
-132834.2853196
-132835.0247662
-132834.6532161
-132833.6538380
-132835.4652020
-132834.8285094
-132835.8469413
-132835.6287910
