6.9377703166 4.2084498855 1.2573896094 8.0873264191 3.4320326786 2.4366095037 1.7873386442 11.4244288454 1.4017210982 1.7303856857 9.8441626679 2.5048048417 7.6160160428 9.5173020469 3.2033713742 13.5015887444 5.8521417903 3.5118608485 2.7050841453 12.5299107862 2.4070085522 12.6826700109 13.1534167877 3.0258037017 10.8284579966 6.9907933750 2.2513476416 12.8935274869 11.4328251763 2.7144918338 5.7617966723 0.8502378106 1.9044336476 6.2673915738 9.4458768839 1.7890367855 7.6685899513 12.7491274088 2.3002325962 10.9851017582 10.8433496741 3.0249403775 0.3325401867 8.3726437106 2.3487944603 5.9728453996 12.8182472017 2.9720639575 4.6135704604 11.8991368958 1.9295519981 4.7905964330 10.0379714785 2.5174022931 13.0763441212 0.8977607101 1.8303025807 3.2250368408 9.0632762343 1.9549027017 9.0553433354 4.8300773043 3.0470358566 8.0324754159 7.7856637324 2.7589149597 5.5661852237 4.4102127312 2.4492034963 10.7362756518 12.8378250138 2.7559354462 9.1568792162 10.4359067458 3.0900873479 9.0793000658 0.2591444920 2.6496575086 0.7028581329 3.3931496774 2.1126460743 6.0936047751 10.8613931077 3.7790961115 8.9244798039 1.8807595098 1.8355779027 1.3660912029 2.1257673443 4.1240860731 0.2689239660 4.0772833970 3.7903938291 12.0053827590 8.3604912369 2.2087830713 5.1158911956 6.0972758747 3.0071887199 11.2824064455 9.7759101416 1.4632117941 4.2673310306 1.5284442870 2.4660481158 2.4029079891 6.7032248749 4.0358897124 1.0691302355 1.6292653388 2.3081251618 11.4367483442 11.2313894244 4.9258142210 4.1944651433 0.1829516858 3.8062059963 9.3351927578 6.6397658768 3.2469823942 4.1451441475 3.3204478657 2.2023418499 11.7086904008 9.1062154999 3.8408306351 4.1473145484 7.1506577626 4.1027656101 2.7513963202 0.8450621648 1.6015776895 4.7155130155 8.9251023926 4.2087257209 0.7343764130 7.3965745816 4.0434406784 8.6523626784 0.8084968099 4.2554371271 1.6034911096 9.2753788483 4.3169537264 12.4137454230 3.3534680731 4.5527373609 1.5079625616 12.2805975188 5.4422398469 6.6129660661 3.4425363866 3.5752971518 1.1765918238 13.4117145963 3.3204295380 4.9301075660 4.7897530644 6.3533363659 3.6842478790 3.8752088088 5.3386585262 9.4078400844 7.2680280185 4.9440961851 2.8780994588 11.1051223620 3.5987993563 6.3338717102 -0.6102889614 4.8355588015 12.1975114805 9.6654279759 5.6481764232 12.6932955884 13.6424004308 4.8819580495 0.8802203970 4.2834651206 5.6757916824 4.6126016874 0.0756425043 5.7999158991 1.0144473485 0.4980280184 5.2698426436 5.7395611713 10.0867704816 5.5942377099 13.3597872303 7.7963732978 5.5666018015 4.6295633344 6.6543147925 5.7638347358 7.4620653701 9.3036697852 5.1587001895 2.2428802800 10.7391522519 5.5019464621 7.7155097463 0.2937738235 5.7951567246 2.9715921563 1.0376251201 5.9526709946 2.3066342689 2.9604814460 6.2044492581 12.8248761795 3.6537374799 6.3503870681 5.9887132797 1.2901353760 6.1724215526 4.4878622953 9.2338710988 6.8962849415 0.3839820828 10.0102527313 6.3799824341 6.8256083427 4.6225965490 6.3763726160 11.5950183176 12.7386446430 6.3220763851 9.8203409343 12.9880719594 6.1849127405 8.7080776532 8.1504731281 6.3593250044 11.8286846951 5.0459925606 6.7429853773 0.5115029121 1.8336151919 6.4708304193 8.4496747045 1.7471804958 6.7932949446 11.0025752606 8.7390517839 6.6059711704 -0.0534046644 12.9690470842 7.3176214467 7.2191822549 7.3156850674 6.8341972429 3.9938151187 7.4843703425 7.6113849858 0.5007365496 8.0587213236 7.3355586752 9.4467142403 6.5999252094 7.4958092805 2.2387826684 7.5646394506 7.2212724841 11.3472736327 0.5654552449 7.6062805625 8.9664486740 9.9134010764 7.6846989985 2.3707231344 10.9475984316 7.5039107529 2.5391086256 3.4902452332 7.8429397115 4.2147213608 11.5212574039 5.7604286939 11.9078533547 11.0520888175 7.3929316606 7.8153900694 5.7411206126 7.7638053425 6.9613797243 2.8195965771 7.3409025153 11.3082351054 6.4369240495 8.0464790725 0.4029581327 11.2574346210 7.9898836041 9.5040306068 0.4239552839 8.0087895156 13.1847951454 6.7549605151 8.0648199988 4.4332174719 5.6008358152 7.9324476952 12.7614435891 2.9365023632 8.2163359303 13.3332415302 1.0103754777 8.4089524751 10.7613746931 9.7701148615 8.3942591537 7.7259875808 12.9920234374 7.4040530028 8.0271706678 3.8741198907 8.4325165260 4.2297904937 11.0697961319 7.7989031479 5.0996968066 3.2655531716 7.5094803234 0.0479481565 9.3049241061 8.7508959512 1.4256863810 1.0896510057 9.0384600507 4.0313290484 3.7532506086 9.0587440725 4.0117997576 7.7130276615 9.3880533894 11.1267842244 5.2955088797 9.3834035813 7.8684673605 11.3034781350 8.3203598941 11.1523336704 8.0818392758 9.0408835994 12.5306407913 4.1537189805 9.6217514104 6.3260306712 12.9441720776 10.0337397942 0.7081931960 11.7131433550 9.6540529592 9.2971199454 12.6052120435 9.2336743444 4.5878691650 13.0831979995 7.7498480717 5.8329021278 3.8766670664 10.0834053716 9.2572365157 1.5972381845 9.4601145113 7.7292867142 2.7325841969 10.2199957545 0.3877489951 5.0486601947 10.2158281330 2.2497408894 1.1586545713 10.6662466162 12.6117194887 0.6139628996 9.9809893214 7.4550169396 10.5318254581 9.8838124667 6.3055630129 10.8568325460 7.2274611119 4.2508548975 10.7729312661 9.5492225463 3.9630656106 1.9945521008 9.6697171806 12.8298249994 7.3732032175 11.2602288434 6.9527764364 11.7031408184 11.2027738555 9.1918036803 0.2538347195 10.9912352052 12.6701463980 8.9949777521 10.3794695504 3.7454784073 6.5901411135 10.8428320436 1.1343836239 0.0138624896 11.4965137729 12.2208582549 3.2011478931 11.0668066060 5.3417449200 6.2777698711 11.6773539974 6.5682291012 1.7022663416 8.9034791114 0.6920353881 11.6456550570 11.5170914729 12.7846584823 12.3306271122 12.3372649688 6.6440498147 5.3191486959 10.7656676825 1.5644824705 2.7381757790 11.3500188462 3.9354438197 11.6311680132 11.1720750746 8.0331908546 4.2534942123 11.2497966490 0.0488397333 9.9076023998 11.5296320538 0.5440939416 6.2030621629 11.6357541662 3.3403419170 4.9461848839 10.2527232330 8.4001513145 12.4272407923 11.9133333582 10.6780184135 0.5619565156 11.8601824709 7.1746141499 6.3190119964 9.3219882942 0.0759146225 3.2669870930 12.2235585670 5.1192772741 0.5003928837 9.2504360659 2.4502307686 11.2369915971 12.0434691932 5.4293874861 11.3747548819 12.1742262121 3.7793292309 13.3636461742 10.5505471757 0.2435498230 4.9657265745 12.9438731686 11.3243155534 10.3018002049 9.9988433496 2.2071965294 6.9866511754 11.7235343816 7.8305374437 1.4833176771 11.4838130596 13.1730927844 1.7472092762 13.0426825562 12.5818147869 0.4450178140 11.8412610304 3.5500836075 1.5382698021 12.5428484269 4.4947578025 1.3288931517 12.5195903296 3.4877832447 2.4818313257 12.7516559772
6.9056833056 4.2061228794 1.2738026377 8.0792400110 3.4371918971 2.4375662662 1.7888040644 11.4245256032 1.4053291166 1.7253839293 9.8433665157 2.5082498064 7.6174049991 9.5180285527 3.2446864127 13.5515836054 5.8143507396 3.5182252388 2.7066243027 12.5263007641 2.4160777891 12.6866613655 13.1583837838 3.0274788450 10.8223104266 6.9931343082 2.2527216642 12.8937296082 11.4307795577 2.7561378099 5.7672066452 0.8530712502 1.9522686484 6.2516797770 9.4436044013 1.8273908107 7.6676319925 12.7474510455 2.3336714629 10.9791570571 10.8767922713 3.0601078730 0.2962641373 8.3914211816 2.3615369996 5.9724598585 12.8180196057 3.0120157307 4.6187139980 11.9014581010 1.9655892939 4.7845571332 10.0374713565 2.5561603842 13.1095023328 0.8883702269 1.8264503109 3.2214516275 9.0635234996 1.9682689913 9.0318191015 4.8450748734 3.0448731897 8.0313272543 7.7925162930 2.7645753722 5.5629821599 4.4125095235 2.4948577335 10.7441258799 12.8459297486 2.7557451769 9.1502711419 10.4438734738 3.1356501795 9.0790695370 0.2622324489 2.6516468323 0.7140548455 3.3771289340 2.1143595074 6.0960434245 10.8607660613 3.8075972225 8.9184873464 1.8838061521 1.8397987129 1.3713970772 2.1239605133 4.1268328003 0.3067728427 4.0374722643 3.8124668323 11.9682350733 8.3866483969 2.2190576306 5.1440806671 6.0993105816 3.0759763992 11.2463980483 9.8133024764 1.4892306749 4.2728486977 1.5297103481 2.5144042948 2.4066542728 6.7064575159 4.0753347947 1.1034255954 1.6251879903 2.3091002657 11.4245569528 11.2402020331 4.9568319200 4.1935088417 0.1855153300 3.8480169499 9.3289846560 6.6451916898 3.2528769948 4.1385009530 3.3256917959 2.2577277748 11.6697104397 9.1106953651 3.8588968616 4.1481092460 7.1501814143 4.1495621539 2.7828631293 0.8394164388 1.6224734113 4.7101748449 8.9289517881 4.2457436177 0.7312120218 7.3914869255 4.0413855867 8.6869175474 0.8045592370 4.2670725561 1.6068135641 9.2704618575 4.3189962433 12.4239937967 3.3516619746 4.5577789604 1.5071986926 12.2897363409 5.4817900625 6.6266192354 3.4397691410 3.6027797327 1.1862039823 13.4071367137 3.3278408055 4.9278671864 4.7949151508 6.3865161978 3.6832524597 3.8747870851 5.3926767132 9.4008587935 7.2668613818 4.9560782339 2.8694556129 11.1067084793 3.6101614352 6.3343837131 -0.6147927658 4.8716954450 12.1637245947 9.6574362106 5.6583532190 12.6924951916 13.6371963740 4.8845006210 0.8832549473 4.2642986360 5.7197124960 4.6068813324 0.1123554147 5.8431849505 1.0147188656 0.5005700503 5.2693054184 5.7359202608 10.0866796858 5.6092452943 13.3546480890 7.7895806272 5.5603771937 4.6285485621 6.6584515821 5.8090586282 7.4623129478 9.3062126175 5.1911418576 2.2409908215 10.7391679879 5.5040361964 7.7161767599 0.2969390920 5.7924520364 2.9623213208 1.0444316227 5.9949465701 2.3113449353 2.9612794441 6.2975156048 12.8215490036 3.6530254778 6.3541704697 5.9790125314 1.3271116979 6.1496358493 4.4951007882 9.2280932249 6.9322941462 0.3676470594 10.0006117743 6.3723574325 6.8337794463 4.6219815619 6.3690951627 11.5966875617 12.7311469303 6.3459531256 9.8143665211 12.9867777417 6.2202286343 8.7191568418 8.1484192331 6.3821059691 11.8020587379 5.0388783775 6.7412605631 0.4782063097 1.8154284976 6.4709467845 8.4465925959 1.7472033722 6.7973882995 10.9603490186 8.7336461476 6.6080777771 -0.1274617679 12.9362063590 7.3409521115 7.2225975241 7.3168837616 6.8408219636 3.9931757527 7.4867850086 7.6574211701 0.4968196725 8.0532256797 7.3315523006 9.4484148023 6.5749295224 7.5045183949 2.2339971898 7.5663893332 7.2640074240 11.3306773802 0.6101011755 7.5974355380 8.9591239334 9.9101556064 7.7158168574 2.3645937054 10.9086934804 7.5022831872 2.5781644657 3.4900231472 7.9105436770 4.2078920646 11.5111686243 5.7747010420 11.8890009870 11.0229297429 7.4063723099 7.8088946394 5.7347024539 7.7521763577 6.9661898381 2.8399337997 7.3436224924 11.3086458211 6.3990256891 8.0547984978 0.3998780143 11.2174541690 7.9899172240 9.4675704822 0.4326676064 8.0069093607 13.1789111843 6.7483370268 8.0648560084 4.4370374732 5.6138605931 7.9738710523 12.7901070985 2.9668751653 8.2359860165 13.2442323509 1.0080053937 8.3775346307 10.7545461739 9.7571073813 8.4129472447 7.7003676401 13.0009456453 7.4033533853 8.0298729273 3.8734023521 8.4343031426 4.2284015246 11.0702221170 7.8010054891 5.1304404916 3.3002651373 7.5600217346 0.0092910231 9.2955755522 8.7348601033 1.4067746861 1.0504479294 8.9418621812 4.1276111691 3.7976909010 9.1595784907 4.0135349079 7.7501514463 9.4279981336 11.1540581192 5.2838930523 9.4271157897 7.8599710084 11.3082319057 8.3310560732 11.1377408070 8.0521351781 9.0444642292 12.5881534582 4.1634637124 9.6564199224 6.3220137029 12.9039345113 10.0326649691 0.7146869639 11.6715897066 9.6497751991 9.2620808829 12.6047350042 9.2323824843 4.5857868927 13.1062121189 7.7777910895 5.8637822670 3.9234092574 10.1442743990 9.2568558326 1.5963221707 9.4617473865 7.7270007226 2.7285683190 10.2324216845 0.4649081490 5.0461958066 10.2243723544 2.2369312715 1.1137805187 10.5161182732 12.6083389750 0.6124909485 9.9694910743 7.4638592124 10.5063814242 9.8952324072 6.2910347154 10.8573263258 7.2584815752 4.2034553911 10.8125696603 9.5574436988 3.9712891463 2.0004628994 9.7051246174 12.8323589351 7.3331282171 11.2917865880 6.9559074808 11.6791236640 11.2096492955 9.1907640249 0.2519052596 10.9948458191 12.6671368593 8.9508706583 10.3854927619 3.7531470000 6.6285214820 10.8827762717 1.1326347358 -0.0073461730 11.4428500434 12.3326437065 3.1628153168 11.0819285138 5.3518719381 6.2894479011 11.6862975659 6.5613948549 1.6969815738 8.9096005467 0.6901321121 11.6445164211 11.5153416135 12.7854576080 12.3272962026 12.3391345304 6.7411071001 5.3980768458 10.8474205788 1.7028506254 2.6458686980 11.3888551005 3.9245165244 11.6347394803 11.1990503019 8.0960968373 4.2082123897 11.2477756802 0.0460771793 9.8830538015 11.5046538590 0.5867322295 6.1925195143 11.6621727603 3.3379765942 4.9949816760 10.2743724998 8.4036875056 12.4178519063 11.9123030297 10.6901857386 0.5611534077 11.8570214887 7.1234897430 6.2926237059 9.2938053572 0.2034079684 3.2119990460 12.2331420447 5.1371759761 0.5091471243 9.2898126944 2.4363593113 11.2320996556 12.0605817385 5.4291888508 11.2913255812 12.1530849439 3.7876447802 13.4039136226 10.6393037386 0.3298257305 4.9177233309 12.9445658258 11.2904823016 10.2506242970 10.0372281443 2.2125218554 7.0310886770 11.7667236147 7.8386979748 1.4641704191 11.4864135883 13.2279426195 1.7127782766 13.0491132952 12.5869660839 0.4427602443 11.8428309242 8.2320561444 6.8163031250 11.7403113604 8.3336643255 7.6284636591 11.2208491463 9.0916868179 6.3655383815 11.6965270460
6.9810622834 4.2094123242 1.2710127325 8.0889814878 3.4230351114 2.4789301840 1.7904941519 11.4315075334 1.4141667180 1.7274902366 9.8447074733 2.5053971290 7.6139965541 9.5167358256 3.2475801745 13.5549300335 5.8218985035 3.5120964990 2.7113091220 12.5353094436 2.4260221439 12.6840029690 13.1132068015 3.0223628912 10.8248959203 6.9382459898 2.3385971602 12.8905306548 11.3887340399 2.7187072438 5.7308306479 0.8553262516 1.9192520153 6.2792453361 9.4431015235 1.8145879622 7.6621402687 12.7592422651 2.3005787221 10.9814016060 10.8312798925 3.0685301548 0.3125800989 8.3674162724 2.3826008875 5.9687602303 12.8224709472 2.9792433288 4.6159986018 11.9001074891 1.9481521949 4.7921249312 10.0352980962 2.5185561631 13.0806979416 0.8545518898 1.8288194167 3.2203112244 9.0732287688 1.9354316642 9.0188587748 4.8225991297 3.1390472130 8.0643039775 7.7928033310 2.8106538947 5.5777696543 4.4103939979 2.4281056229 10.7351462560 12.8126627138 2.7665270046 9.1406559004 10.4466389707 3.1435311958 9.0812742487 0.2615051344 2.6482621518 0.6638470733 3.3653818824 2.0865354296 6.0928612749 10.8660568672 3.7918223327 8.9291614531 1.8820778714 1.8358066384 1.3607681524 2.1289211655 4.1143287344 0.2640090721 4.0378897002 3.7779448270 11.9704866589 8.3295453558 2.2668670772 5.1560512980 6.0993399641 2.9966634916 11.2363501291 9.7352188899 1.5141394921 4.2655807134 1.5643305803 2.5140596336 2.4476237011 6.7074645774 4.0304241060 1.0650609371 1.6225202641 2.3073654095 11.4642271332 11.2010198726 4.9531279832 4.1954674035 0.1881225008 3.8376741910 9.3296934177 6.6300342814 3.3441681222 4.1432974198 3.3504202131 2.1605717663 11.6650212496 9.0707455609 3.8912286865 4.1903089989 7.1467577066 4.0989925964 2.7684385408 0.8549765863 1.6385501234 4.7202737543 8.9277341827 4.1977501387 0.7700566034 7.3859608229 4.0479892157 8.6457123757 0.8407050742 4.2414774137 1.6120327824 9.2608701661 4.3198680426 12.3806299106 3.3521694289 4.5262064893 1.4611864145 12.2311246615 5.4387315895 6.5721855907 3.4023408182 3.5692028259 1.1796787066 13.4039598484 3.3295973468 4.9279453760 4.7637074610 6.3708500242 3.6807791918 3.8271449332 5.3477148593 9.3443231971 7.2324198240 5.0517910320 2.8806707128 11.0973044600 3.6082327256 6.3342314435 -0.6136149555 4.8490790147 12.1994532916 9.6169062068 5.6918372410 12.6787774576 13.6073520601 4.8722233125 0.8520272343 4.2564076481 5.6813689007 4.6056456858 0.0757696033 5.8330177345 1.0143494244 0.4644197310 5.2686043745 5.7257286020 10.1178009269 5.6003185279 13.3757240405 7.7780325628 5.5666602780 4.6499302467 6.6185380292 5.7550572854 7.4268958364 9.2906548430 5.2069203749 2.2394345862 10.7088533299 5.5050761255 7.7107966959 0.3020042479 5.7790753849 2.9297346117 1.0049036695 5.9613206117 2.2884599743 2.9509343543 6.2106892076 12.7768845199 3.6590904991 6.3195178718 5.9868545577 1.3125012808 6.1502235010 4.4475019675 9.2630601733 6.8413222865 0.4051598341 9.9587929475 6.4098046918 6.8067720401 4.6180720409 6.4060588682 11.5984802741 12.7199863537 6.3083726480 9.8278469274 12.9867314636 6.1550547051 8.6202677561 8.1409291837 6.4473406292 11.7604103447 5.0465098182 6.7023909995 0.4639881304 1.8002846845 6.4358501405 8.4517691904 1.7442282395 6.7922411541 11.0052139644 8.6953198305 6.6406706057 -0.0894015045 12.9337509740 7.3157319772 7.1347555734 7.3235693862 6.9744891175 4.0366139034 7.4867969869 7.5702665404 0.5317360955 8.0065969136 7.3447317508 9.3853618288 6.6041163887 7.5902601020 2.2674061663 7.5086904021 7.2127702780 11.3466159222 0.5748045660 7.5837404798 8.9405478104 9.8751597516 7.6949474451 2.3711139242 10.9531101341 7.5018029767 2.5506191443 3.4872559130 7.8481081903 4.2147689395 11.5739613666 5.7691403698 11.9046754608 11.0072880829 7.4037818436 7.7648925566 5.7415685725 7.8974887680 6.9622201818 2.8183949678 7.3294698041 11.2709415037 6.4132104629 8.0376898803 0.4018318601 11.2140480643 7.9907189347 9.5047326722 0.4048629898 7.9798625085 13.1776330138 6.7099453886 8.0475533762 4.4850939768 5.6081653451 7.9550738880 12.7857937957 2.9644065266 8.1936003625 13.2845424808 1.0068094783 8.3541959660 10.7538194478 9.7526108773 8.4125038479 7.7292434929 12.9822711551 7.3755212064 8.0215240841 3.8586103616 8.4330019364 4.2281304097 11.1129960464 7.8005455599 5.1028506942 3.2594349956 7.5496038980 0.0608110263 9.2563048502 8.7634076316 1.4191887220 1.0821320460 8.9397277121 4.0359417630 3.7547168493 9.0842735225 4.0195632948 7.7883141006 9.3288045680 11.1481513630 5.2793803300 9.3870202762 7.8716691768 11.3008538842 8.3251855856 11.1796437279 8.0590799921 9.0502844967 12.5841439107 4.1649024097 9.6122116848 6.3334677783 12.9259689429 10.0397631196 0.7110371574 11.6702407849 9.6514276223 9.2980825999 12.5616093652 9.1938814103 4.5825143457 13.1204203222 7.7818248771 5.8716536468 3.8651273485 10.2295607691 9.2628528280 1.5571313336 9.4254386689 7.7742075775 2.7245306651 10.2109077942 0.4708106608 5.0056204223 10.2290116380 2.2438183855 1.1113502999 10.5274860982 12.6163071210 0.5990576464 9.9341497750 7.4591628579 10.5229628382 9.8864016323 6.2774883784 10.8591513269 7.2616433080 4.2068495946 10.8234852740 9.5510564669 3.9646558636 1.9921715272 9.6982857100 12.8409970349 7.3304941613 11.2791338850 6.9542699477 11.6808119470 11.2079613375 9.1987254089 0.2344847573 10.9751182672 12.6686274074 8.9506965002 10.3820134355 3.7419796803 6.6353420396 10.7658572193 1.1347603450 -0.0027527720 11.4379696780 12.3315949799 3.1539142095 11.0257486782 5.2899153603 6.3803538027 11.6296124793 6.5628446192 1.6956835109 8.9017801751 0.6846058471 11.6425283490 11.5158682401 12.7876345628 12.3540465017 12.3394637604 6.6869478103 5.2617979211 10.9890381139 1.7452823154 2.6485610100 11.3907890493 3.9195437672 11.6337146723 11.1983543201 8.2185822262 4.1991712883 11.1555130509 0.0092213378 9.9070115861 11.5316009102 0.5896533921 6.1926408033 11.6337830797 3.3312776490 4.9618330508 10.2241535886 8.4056431749 12.4115110715 11.9092202470 10.6976033921 0.5623163843 11.8254660537 7.2208170350 6.2401683397 9.5087598923 0.2142091192 3.2343235530 12.1760987069 5.1467437458 0.5154035545 9.2882720450 2.4303762892 11.2297602784 12.0596227278 5.4257647297 11.2965540442 12.1541072242 3.7930804827 13.4026714990 10.6445439641 0.3349531069 4.9220530662 12.9308644833 11.2976065660 10.2571116804 10.0262296045 2.2135967653 7.0360993404 11.6764206733 7.8873768016 1.4641458507 11.4862653192 13.2263492603 1.7472138382 12.9976053472 12.5896556375 0.4518108044 11.8025480839 7.0508858143 5.2495866580 13.1191960836 7.9186547490 4.9481640496 13.4264464163 6.6962107063 5.9286203293 13.7099299591
6.9922590371 4.1561676731 1.4753565926 7.8533070014 3.1908789754 2.7994052699 1.7870214102 11.4005481738 1.4519515547 1.8208405032 9.8037091793 2.5129148092 7.6206493202 9.4614881814 3.2157208758 13.4478753047 5.9769005690 3.4544226680 2.6951668474 12.5620248264 2.4386267227 12.5414941600 13.3038521036 2.9744690074 10.7105338330 6.6939681880 2.4922154808 12.5615773380 11.5703392403 2.4324147150 5.7779581942 0.8005437238 1.8308039989 6.3340537021 9.4959572203 1.7695581498 7.7475893956 12.7936669719 2.3916484827 11.0775027208 10.5496061202 2.8833375974 0.4154513886 8.3602495096 2.4286204687 6.0165899632 12.8194990612 3.0180874268 4.6533403418 11.9165351041 1.9653128866 4.8436373067 10.0763639021 2.5144184018 13.1441656941 0.9943904580 1.8372118888 3.3123134642 9.0273407666 1.9637694550 8.6914356641 4.6310891192 3.5101467720 7.9358648980 7.6854529798 2.8514933255 5.4020741228 4.3687421705 2.2825729307 10.7173134176 13.5045293784 2.9525195558 9.1956044427 10.2878426320 3.0447296110 9.0148065054 0.5164528457 2.6733539152 0.7996567959 3.4596675007 2.1673558671 6.1358866709 10.8748183335 3.7785602283 8.8342167982 2.0372112310 1.7305449322 1.3741484970 2.1249662544 4.1732760812 0.2594638675 4.1859591885 3.7709245142 12.0580139189 7.9269197520 2.3912930521 5.0566088715 6.0571497393 2.9524234173 11.4257113972 9.2561946751 1.4552622278 4.4820729615 1.6814464150 2.5346308236 2.4477908325 6.6514697518 4.0765732411 1.1633613190 1.6727025006 2.3598479314 11.4703750371 11.1514908270 4.8008052034 4.3532273469 0.2347101339 3.8563065947 9.1460643158 6.4485167155 3.4002746204 4.0990154515 3.3059559202 1.6831933999 11.7516676023 8.9610511019 3.8686726101 4.1907981770 7.1551709183 4.0601702196 2.8445664655 0.8896902366 1.7778371096 4.8119889504 8.9249716130 4.1799126744 0.8328796563 7.4391422927 4.1084145694 8.2257975991 1.3712070284 4.0816252568 1.6989071026 9.2545162597 4.3605725675 12.4004319363 3.4333576752 4.4956724294 1.5168173649 12.2710760374 5.4435269381 5.9510892322 3.0685571908 3.4728579458 1.1775544612 13.4034507121 3.3249577368 4.9259420026 4.7818784849 6.3106381804 3.6395381459 3.8745602620 5.3335721861 9.3086772294 7.2210655142 5.0181427850 2.9282803382 11.1004974424 3.6088656233 6.4235370244 -0.6649638063 4.9037666632 12.1906888004 9.6396794149 5.6747643813 12.6935347489 13.6386924628 4.8747864645 0.8526401399 4.3140550920 5.6596858524 4.6450531467 0.1167820603 5.7994526785 1.0137936466 0.4923865871 5.2671878866 5.7397726964 10.1340238172 5.6076925955 13.4066176203 7.7991301526 5.6098398976 4.6765830806 6.6460933057 5.7188427866 7.4691494421 9.3378816995 5.2131779307 2.2857765122 10.7480223939 5.5412143427 7.7785662786 0.3326912944 5.7173959718 2.9751875794 1.0389579948 5.9582012312 2.2861748960 2.9533846223 6.2053740860 12.7836250498 3.6995499618 6.3042184696 6.0214570690 1.3157133684 6.1486548965 4.4781152915 9.2611935720 6.8464231659 0.3869920500 10.0083943591 6.3984367979 6.8129064046 4.5864157719 6.3367705942 11.5003758830 12.7368036084 6.1530265222 9.7802798784 13.1277171724 5.8112053885 8.6175184932 8.1547848853 6.4026837091 11.7931828735 5.0944363653 6.6947807261 0.4685321425 1.8347506663 6.4514255624 8.4585515183 1.7571316013 6.8027520862 10.9819574995 8.6947888656 6.6080144654 -0.0924974958 12.9476629234 7.2916052667 7.1355210678 7.3145357955 6.8880598879 4.0420770065 7.4872509993 7.5674381950 0.5302867340 8.0528617815 7.3787654731 9.3894160082 6.5954489917 7.5473141802 2.2710561750 7.5561493147 7.2614050467 11.2786882959 0.4688699692 7.5474801592 8.9389169226 9.9128341231 7.7174309658 2.3786977308 10.9579745222 7.5203337075 2.5217345005 3.4935382383 7.8452061719 4.2418356327 11.5675666040 5.7776358605 11.8421571619 11.0372908511 7.3064107697 7.7709904869 5.7355520386 7.7979656041 6.9250587864 2.8180053809 7.3183246529 11.2705780867 6.4460786056 8.0360887145 0.3561136361 11.2628518721 7.9807801856 9.4528018801 0.4677473025 8.0115849295 13.1766301887 6.7510484449 8.0675929441 4.4444487220 5.5969240038 7.8879471618 12.7046177206 2.9623100995 8.1632688332 13.2409751069 1.0072984629 8.3249926010 10.7508496111 9.7608276740 8.3694901994 7.8324549417 12.9784390163 7.3221668442 7.9868653084 3.8735515124 8.4277693973 4.2312937043 11.1164775658 7.8407480951 5.0865314526 3.2637733566 7.5051699976 0.0046850714 9.3054912181 8.7591919125 1.3736115984 1.0845810802 8.9205285856 4.0243608079 3.7568455340 9.0550162335 4.1131040672 7.7433865157 9.3383929901 11.1455742816 5.2914340779 9.3746018320 7.8549962162 11.3120448760 8.3661412165 11.1419019521 8.0705661809 9.0500227996 12.5752633246 4.1726433442 9.5929749174 6.3202353246 12.9040776381 10.0303660124 0.6640085420 11.7066919093 9.6489400628 9.2494879642 12.6150464522 9.2470196030 4.5869798468 13.1214842590 7.7964592492 5.8370561489 3.8681786903 10.1122095424 9.2668102704 1.6037494387 9.4317805924 7.7272053292 2.7404424085 10.2150755649 0.4692370309 5.0030278173 10.2168551876 2.1993418408 1.1162918620 10.5101930400 12.5909757154 0.6174782261 9.9181501155 7.4602910371 10.5220163326 9.9323132292 6.2809231740 10.8658436054 7.3074578468 4.2023978827 10.8409201188 9.5865344301 3.9338935194 1.9970361944 9.6556717201 12.8553591868 7.3459794554 11.2476858324 6.9229811008 11.6845380324 11.2355322576 9.1817603527 0.2117862313 10.9871411844 12.6239492975 8.9719392243 10.3747656406 3.7912316663 6.6356123247 10.7974649975 1.0992047344 0.0104742238 11.4366076878 12.3167030132 3.1655148189 11.0110836951 5.3457180472 6.2895363638 11.6861617880 6.5590090720 1.6915443213 8.9013050497 0.6400950523 11.6464244852 11.5149279555 12.7505371625 12.3777501715 12.3291450478 6.6486924143 5.2965339308 10.8179876440 1.7112793801 2.6598705761 11.3531619985 3.8941214859 11.6760701391 11.2226684558 8.0648244009 4.2403780427 11.2514319584 -0.0372418420 9.9169327177 11.5325453197 0.6190789264 6.2217790250 11.5992690878 3.3525351085 4.9991966353 10.2061154189 8.3667584746 12.4273791993 11.9469832621 10.6786119210 0.5655600610 11.8172223283 7.1708104442 6.2910391853 9.3736124694 0.2000697101 3.2757919670 12.1516553691 5.1313607760 0.5139257863 9.2934999014 2.3958646599 11.2440896769 12.0528203087 5.3879631048 11.3361323828 12.1888782952 3.7781091056 13.4397987883 10.6625801752 0.3757872765 4.9622177057 12.8984015005 11.2856866657 10.3003705185 9.9749500804 2.2399827008 7.0784075094 11.6368626570 7.8387223084 1.4658129632 11.4456776481 13.2230635920 1.7877364422 12.9865329706 12.5868244392 0.4889079985 11.7976932694 10.2195761705 11.5882015946 1.0336480822 10.6104232651 11.1119116614 0.2837261679 9.2758047694 11.3517648617 1.0393922373