-133310.2313659
-133310.5498876
-133310.4056521
-133310.1187034
-133310.6489329
-133310.4373948
-133310.5370744
-133310.0542839
-133310.2133882
-133310.2445865
-133310.3430127
-133310.6354538
-133309.8228471
-133310.5140834
-133304.8697732
-133304.6010973
-133302.0056867
-133300.2680655
-133300.9711294
-133301.1278503
-133302.2331611
-133302.8525332
-133302.4589808
-133303.0411047
-133302.1821904
-133302.4786452
-133303.2894693
-133301.7175316
-133302.1177126
-133303.3848654
-133303.3073256
-133302.5428014
-133301.6692640
-133303.4993626
-133303.1763056
-133301.9208885
-133302.4432885
-133302.5420592
-133302.4424448
-133302.2067238
-133303.5125691
-133302.7013700
-133302.8690722
-133303.0996739
-133304.3389094
-133302.0196221
-133302.9297102
-133303.1924725
-133301.8253487
-133302.2236369
-133302.9858524
-133302.9788984
-133303.4889599
-133302.1357519
-133302.7972809
-133304.3452001
-133305.0441236
-133304.9338342
-133305.0473008
-133304.7026049
-133304.8944866
-133304.1168156
-133304.3096752
-133304.9226004
-133302.9903209
-133304.4198711
-133304.8971321
-133304.9074356
-133303.7759884
-133304.1455743
-133303.9304376
-133303.9860522
-133304.3554378
-133304.0419444
-133304.5320885
-133304.1400448
-133300.3697453
-133300.4196374
-133301.2271101
-133301.6656261
-133300.4397152
-133301.7047693
-133300.5538439
-133301.5393113
-133302.1157506
-133301.2585201
-133301.1508621
-133299.8714574
-133300.0076988
-133302.3137083
-133301.3074281
-133303.7170270
-133300.1206126
-133299.4306730
-133299.8587176
-133301.4146905
-133302.7330941
-133301.1855591
-133302.4800809
-133300.0204769
-133300.9016093
-133301.0170912
-133302.0673629
-133305.4452588
-133302.5837336
-133302.4288731
-133303.3593389
-133305.1988610
-133304.9921197
-133304.5979037
-133305.3494887
-133305.2277508
-133305.6351193
-133305.9042103
-133303.6477061
-133306.2406256
-133305.7089256
-133306.5480353
-133305.6303254
-133306.6269922
-133306.4711223
-133305.7702275
-133305.5059697
-133305.9122046
-133305.4756609
-133304.7105295
-133306.4682721
-133305.1998032
-133306.3556528
-133305.5195949
-133305.8955227
-133306.5314078
-133305.3359739
-133305.2422678
-133305.6872826
-133305.4069552
-133304.3232399
-133305.5391900
-133305.8435818
-133304.3778430
-133306.1721791
-133305.6662796
-133305.5729540
-133304.8413520
-133304.8794922
-133305.4418593
-133305.4169412
-133303.6534146
-133304.9320665
-133305.5148563
-133304.8176146
-133305.1741931
-133304.3659711
-133306.0479244
-133305.0856581
-133306.3378404
-133304.7464110
-133304.5925999
-133306.5244388
-133304.8445070
-133304.7558526
-133305.2082830
-133305.6179394
-133305.5635354
-133305.2961793
-133305.9900579
-133305.4482843
-133305.8786405
-133306.1769286
-133306.6001911
-133305.6870408
-133306.7437264
-133306.4233761
-133306.1414057
-133306.1131012
-133306.6349395
-133306.7498076
-133307.0719193
-133306.5197216
-133306.9355954
-133306.5738484
-133306.7331587
-133306.5213014
-133306.6580376
-133306.7729883
-133306.2428882
-133306.8335093
-133306.8251305
-133306.7147890
-133306.3751167
-133306.9325112
-133305.4138089
-133306.3352463
-133306.9361628
-133307.2695527
-133306.4759305
-133305.7979717
-133306.2831318
-133305.2451127
-133306.1800521
-133306.3517304
-133307.5045567
-133306.6366718
-133306.2862779
-133306.9549812
-133308.2291558
-133306.7422583
-133307.5876550
-133305.6164068
-133308.1456119
-133307.0614640
-133305.7892707
-133307.9069382
-133305.6819260
-133306.9683532
-133307.7678398
-133307.3703987
-133307.0882993
-133306.9150956
-133307.5916649
-133307.3993776
-133306.9207356
-133307.4159193
-133307.9356960
-133306.3634027
-133306.7365752
-133307.0674942
-133306.1506529
-133306.5782304
-133307.1848017
-133307.0682596
-133307.7481627
-133306.4767969
-133306.8040065
-133307.5067181
-133307.4968622
-133306.9595784
-133308.3422834
-133307.5178137
-133306.3186931
-133306.7324934
-133307.2959326
-133306.2981684
-133306.5854902
-133306.6004352
-133306.1813847
-133306.3269439
-133306.6457808
-133307.2017272
-133307.2844244
-133306.2803941
-133306.8701406
-133305.8255972
-133306.7539079
-133305.5287016
-133307.5533749
-133306.7599605
-133306.7317947
-133307.3217610
-133307.9335618
-133306.0952307
-133306.2707840
-133307.2014779
-133305.9836833
-133308.1970468
-133306.2027487
-133305.9892592
-133307.3807079
-133306.6939556
-133307.9138305
-133307.7818880
-133307.1687057
-133307.2948011
-133306.7592490
-133308.0430302
-133306.5767349
-133307.4783445
-133306.7632666
-133307.3723134
-133306.8805704
-133307.6641098
-133306.6933163
-133306.3060072
-133306.6376049
-133307.0646118
-133306.6728328
-133306.5225945
-133307.6011149
-133306.8355471
-133306.3174528
-133306.1141906
-133305.7321317
-133306.6207060
-133307.4233092
-133306.7283755
-133307.7634754
-133306.3728369
-133306.3194993
-133306.7947552
-133306.6539620
-133305.9016152
-133306.3172566
-133307.0837212
-133307.2663768
-133306.3639143
-133307.1069182
-133306.3153712
-133306.3376972
-133308.2998546
-133307.6728297
-133307.5994478
-133306.6380434
-133306.7323458
-133307.4794192
-133306.3415317
-133306.7046567
-133306.9995107
-133307.1449903
-133307.4769977
-133306.6729245
-133307.0712499
-133307.6934541
-133304.9316475
-133307.7287222
-133307.0697263
-133307.5274792
-133306.4786979
-133306.9360720
-133306.8683488
-133307.4208458
-133307.6235327
-133306.9267502
-133306.0440911
-133307.7466551
-133307.4046332
-133306.4466303
-133305.8961850
-133307.2774555
-133306.5059950
-133307.2417381
-133307.6417291
-133306.0202651
-133307.6088012
-133306.2868866
-133306.4457554
-133306.6525603
-133307.3719594
-133308.0034037
-133307.5453609
-133306.8617313
-133306.1668935
-133307.0789949
-133307.7206177
-133307.0764085
-133306.4027789
-133306.8946599
-133307.0438884
-133307.6902289
-133305.8633870
-133307.4428552
-133306.8165015
-133306.6357926
-133307.3895781
-133305.7681640
-133306.4195940
-133307.8283678
-133307.3505595
-133306.2067439
-133306.8893940
-133306.9512670
-133307.3088051
-133307.2325006
-133306.9794676
-133306.9424332
-133305.8803073
-133307.2770444
-133306.8833878
-133307.4636475
-133307.1429286
-133306.7408195
-133306.2359961
-133307.1740652
-133307.4145975
-133307.4672636
-133307.2362571
-133307.6821282
-133307.9718485
-133306.3511468
-133307.2319880
-133307.3277491
-133306.8575490
-133307.3329223
-133306.0049364
-133306.2355158
-133307.5715240
-133306.5918381
-133306.3076471
-133307.9965161
-133306.2232114
-133306.9095831
-133308.0573892
-133307.0823998
-133307.3661168
-133308.0184535
-133307.3374682
-133307.0786057
-133307.4736326
-133307.4251480
-133306.6691510
-133307.1198625
-133306.3876818
-133306.7354544
-133306.7764786
-133306.9914297
-133306.8582783
-133307.2165861
-133306.7576931
-133307.4919171
-133306.6737215
-133306.5514916
-133306.8040926
-133306.9023378
-133307.0632786
-133307.0105691
-133306.2995453
-133306.8162685
-133306.8527953
-133306.4023441
-133306.4612189
-133307.3361384
-133307.1996485
-133306.0382820
-133306.2625615
-133307.1342871
-133306.3804956
-133306.8136571
-133306.8381851
-133305.9128627
-133306.3340519
-133306.8453879
-133305.7756208
-133307.0786936
-133306.2476140
-133306.2121748
-133307.5068038
-133306.9542257
-133306.5289018
-133306.4170837
-133306.7249565
-133306.7702777
-133306.4637324
-133306.5421734
-133306.8877620
-133307.9762189
-133307.4501955
-133306.7934232
-133305.6744813
-133305.5041943
-133306.7826497
-133306.2281191
-133307.0886670
-133306.0898190
-133306.1540860
-133306.9094274
-133306.6012327
-133303.1615582
-133305.3670494
-133304.7934313
-133305.4761798
-133305.2287235
-133305.3232829
-133305.0780057
-133305.7936805
-133307.5448345
-133307.5959725
-133307.2544148
-133307.3369046
-133307.6835681
-133306.9402507
-133307.1066356
-133308.5281549
-133307.3950603
-133308.2231434
-133307.4802398
-133307.7671713
-133307.7446579
-133307.4262287
-133308.6843307
-133307.6272722
-133307.9983871
-133307.0587957
-133307.3301190
-133307.2921419
-133308.3523769
-133308.3605077
-133307.8905661
-133307.9507098
-133307.9265507
-133307.5487579
-133307.0332768
-133307.3965533
-133306.8963786
-133307.5680721
-133307.9284377
-133308.4713706
-133306.8781970
-133308.4211529
-133307.7930745
-133307.3247457
-133306.8856689
-133308.3171681
-133308.4420123
-133307.7046403
-133308.2782781
-133307.8955349
-133307.8057719
-133308.1091775
-133307.8432568
-133306.7445965
-133308.3440457
-133308.1580197
-133307.5972290
-133307.2101199
-133307.2307765
-133307.2644309
-133308.1219185
-133308.0343794
-133306.7991821
-133307.6599215
-133307.6730875
-133305.8122728
-133307.4040893
-133307.4482395
-133308.2769764
-133307.5356003
-133307.5082554
-133308.0438199
-133307.6284718
-133307.8523177
-133307.1306102
-133307.4796697
-133306.7917394
-133308.2525475
-133306.9901740
-133308.0950133
-133301.0589397
-133302.0631513
-133302.9614402
-133304.3247256
-133301.8674515
-133304.1880791
-133303.7734165
-133304.4956537
-133304.0022855
-133303.5546351
-133303.5439518
-133303.9393410
-133305.4402434
-133302.7616148
-133303.9764832
-133304.1090220
-133304.9711986
-133305.1950879
-133305.7694249
-133302.8607772
-133303.5771918
-133305.1411979
-133303.7930913
-133304.7386092
-133303.1055864
-133304.8886391
-133304.5926232
-133303.9564021
-133303.2683936
-133304.0269162
-133304.0219571
-133306.1125098
-133305.6457218
-133306.7967198
-133303.9827710
-133306.2368929
-133305.2595987
-133304.6126183
-133305.0036863
-133305.6958496
-133305.5746122
-133305.8361885
-133306.3995445
-133305.3807552
-133304.3096623
-133304.5391183
-133306.0848242
-133305.4377994
-133306.4165319
-133306.1283594
-133305.6284417
-133305.0697088
-133305.0013888
-133304.3357082
-133304.2312163
-133305.4907805
-133305.2162633
-133305.0791570
-133303.4020581
-133306.4408387
-133304.2763370
-133305.7642425
-133304.7873612
-133304.4376689
-133305.1043939
-133303.7602124
-133304.0065915
-133304.7825519
-133304.1268762
-133305.2849778
-133304.0760815
-133305.4034142
-133305.0096612
-133304.9518746
-133305.6612335
-133303.3289019
-133304.2460948
-133305.4746992
-133304.5765517
-133305.1813355
-133305.3296413
-133304.7580886
-133304.3767761
-133306.0984373
