  -0.0001825   -0.0004134   -0.0006402   -0.0000890    0.0028586   -0.0015468    0.0004731    0.0004469    0.0017309   -0.0001424   -0.0038649   -0.0031496   -0.0010032    0.0020528   -0.0004695   -0.0003908    0.0004813    0.0001085    0.0029676    0.0017144    0.0003841    0.0014007   -0.0007605   -0.0028760    0.0004757    0.0001466    0.0002057   -0.0001846    0.0001322    0.0004469   -0.0001316   -0.0003075    0.0001800    0.0004268   -0.0003245   -0.0004263   -0.0000252    0.0001296    0.0000015    0.0000504   -0.0003090   -0.0009914   -0.0011174   -0.0007883   -0.0001409   -0.0000694   -0.0009415    0.0007461   -0.0004906   -0.0001121   -0.0006767    0.0006032   -0.0008865    0.0017067   -0.0008845    0.0003841    0.0002391   -0.0007657    0.0006104    0.0004607    0.0005075    0.0003013    0.0007348    0.0009482   -0.0006618   -0.0001759    0.0015812    0.0010099    0.0008593   -0.0002849    0.0001172   -0.0002350    0.0004309   -0.0001430   -0.0000627    0.0004484   -0.0008526   -0.0004201    0.0000453    0.0003949   -0.0002232   -0.0000833    0.0005302   -0.0006973   -0.0001682    0.0000684    0.0000303    0.0005734   -0.0022610   -0.0010758    0.0003965   -0.0015715   -0.0009205   -0.0008557    0.0002371   -0.0004541    0.0000514   -0.0000427    0.0004067    0.0000118   -0.0001059   -0.0003306    0.0003872    0.0006150    0.0003600    0.0000920   -0.0002165   -0.0001795   -0.0023613    0.0009744   -0.0003039   -0.0001342   -0.0007276   -0.0003918    0.0001208    0.0005034   -0.0007554   -0.0004957    0.0000406   -0.0013951   -0.0002052   -0.0001969   -0.0000437   -0.0000159    0.0004973    0.0007544   -0.0009883    0.0029172   -0.0000761   -0.0001296    0.0000679   -0.0000031   -0.0003440   -0.0010002   -0.0007076    0.0014300    0.0009472    0.0008464   -0.0000679    0.0004001   -0.0001933    0.0004890    0.0009194    0.0003497   -0.0001543   -0.0000447    0.0000026   -0.0007610    0.0002628   -0.0005852   -0.0001116   -0.0005338    0.0004319    0.0010737    0.0004597    0.0008731   -0.0001707    0.0020934    0.0004541    0.0002103   -0.0001337    0.0004901    0.0001563    0.0002592    0.0008999   -0.0024009   -0.0007060   -0.0018558    0.0002139    0.0006700    0.0005137   -0.0006567    0.0003625    0.0012259    0.0015997    0.0001527   -0.0013138    0.0009472   -0.0010608   -0.0002473   -0.0020379    0.0000314   -0.0005363    0.0016609    0.0006402    0.0046758   -0.0013082   -0.0019571   -0.0003162    0.0001990   -0.0004566    0.0003795   -0.0011647   -0.0004931   -0.0000962   -0.0002833    0.0017396   -0.0007112    0.0089855    0.0022117    0.0009385    0.0019252   -0.0007580    0.0003348    0.0008243    0.0002031    0.0002386   -0.0015560   -0.0016321   -0.0020919   -0.0007292    0.0030879   -0.0003600    0.0001378   -0.0005862   -0.0000967    0.0001697   -0.0004895    0.0007307   -0.0007137    0.0013493   -0.0016203    0.0005795    0.0002437    0.0002592    0.0064010    0.0009837   -0.0003296   -0.0007657    0.0004582    0.0006345   -0.0016399   -0.0021875   -0.0011153    0.0013478   -0.0019654   -0.0017525   -0.0011529    0.0012187    0.0016928   -0.0011575    0.0007816   -0.0000334   -0.0015673   -0.0012146   -0.0008274   -0.0017412   -0.0015673   -0.0014331   -0.0012974   -0.0014270    0.0006001    0.0048938    0.0054425   -0.0003913   -0.0014007    0.0022029    0.0010531    0.0032478    0.0016347    0.0018702   -0.0004618   -0.0005816   -0.0000818   -0.0006078   -0.0007646    0.0003898    0.0017345   -0.0014254   -0.0000046    0.0004427   -0.0002530   -0.0002597   -0.0004057    0.0005034    0.0012213    0.0007266    0.0003713    0.0019767   -0.0007425    0.0012089   -0.0001748   -0.0014079    0.0011673   -0.0027490    0.0007816   -0.0015149   -0.0002247    0.0054816   -0.0000725   -0.0013766    0.0032139   -0.0021217    0.0017072    0.0009333    0.0033224   -0.0017247   -0.0019078    0.0003759    0.0016039   -0.0012588   -0.0019088    0.0004546    0.0020101   -0.0026729    0.0009955    0.0003162   -0.0086662    0.0014141    0.0010979    0.0032555    0.0000756   -0.0005826    0.0005435    0.0005919    0.0009529   -0.0007868    0.0008999   -0.0009806    0.0038129    0.0037060   -0.0007945    0.0002124    0.0002833    0.0010485   -0.0016563   -0.0011375    0.0005045    0.0017211   -0.0004355    0.0007220    0.0003687   -0.0009529   -0.0000231   -0.0000766   -0.0003430   -0.0016666   -0.0009940    0.0006880   -0.0010305    0.0001527    0.0015576   -0.0022631   -0.0009333    0.0008114    0.0009354   -0.0005266    0.0024492    0.0009981   -0.0010727    0.0014624   -0.0002257    0.0002617    0.0036633   -0.0003132   -0.0007024   -0.0016558    0.0004844    0.0009009   -0.0002751    0.0000458   -0.0021140   -0.0008099    0.0010758   -0.0021716   -0.0018245    0.0035831   -0.0009719    0.0014666   -0.0003672   -0.0034751   -0.0021896    0.0015108   -0.0047313   -0.0027480   -0.0010593    0.0005451    0.0002473    0.0006495    0.0007225   -0.0008783   -0.0011436   -0.0011231   -0.0014239   -0.0000807    0.0005888   -0.0002746   -0.0000237   -0.0013365   -0.0000766    0.0001774   -0.0005440    0.0012213   -0.0010855   -0.0011457    0.0022615    0.0016378   -0.0000946    0.0039194   -0.0020013   -0.0043169   -0.0020703    0.0011981   -0.0024210    0.0002211    0.0015113    0.0003995    0.0003872    0.0008346   -0.0012928   -0.0012223    0.0016764   -0.0001034    0.0008330    0.0006232    0.0023911    0.0000771    0.0017016    0.0053412    0.0019751   -0.0008469    0.0011457    0.0002083   -0.0002463    0.0015689    0.0002216   -0.0033563    0.0030961   -0.0001512    0.0001172   -0.0012115   -0.0009318   -0.0022698    0.0034401    0.0008120    0.0017982   -0.0009883    0.0017802   -0.0000951    0.0003044    0.0003738   -0.0015807    0.0011385    0.0013375   -0.0002659    0.0008464   -0.0005466   -0.0018003   -0.0003461   -0.0017833    0.0001872   -0.0011765    0.0029655   -0.0051309    0.0035502    0.0056168   -0.0030072   -0.0024060   -0.0011735   -0.0001054    0.0004155   -0.0003754    0.0001178    0.0002083   -0.0005394   -0.0006237    0.0009796    0.0003553   -0.0031259    0.0004299    0.0012424   -0.0026914    0.0011184    0.0000951   -0.0003013    0.0016049    0.0010392   -0.0003399    0.0056261   -0.0008824    0.0007487    0.0000165   -0.0012341    0.0013910   -0.0015427   -0.0001697    0.0007189    0.0014408    0.0010727    0.0012100   -0.0009313   -0.0002067    0.0007096   -0.0018748   -0.0021937 
  -0.0003327   -0.0008716    0.0011400    0.0043503    0.0007394    0.0006119    0.0002021   -0.0000602   -0.0005389   -0.0002643    0.0004016   -0.0007394   -0.0006531    0.0012974   -0.0008027   -0.0001604   -0.0006273    0.0000051   -0.0019499    0.0004031   -0.0002216   -0.0017561   -0.0013493   -0.0003270    0.0000406    0.0002941    0.0001872   -0.0001142   -0.0003656   -0.0002386   -0.0000802   -0.0005965    0.0002833    0.0001157   -0.0008027   -0.0008469    0.0002489    0.0006191   -0.0000432   -0.0024513    0.0011992    0.0009755    0.0000607    0.0001728    0.0002633   -0.0013565   -0.0056965    0.0004875   -0.0010583    0.0006273   -0.0007544    0.0030138    0.0016193    0.0016409   -0.0006901   -0.0005260    0.0005142   -0.0001455    0.0002545    0.0001640   -0.0003255   -0.0002957   -0.0000334    0.0000051    0.0002520    0.0001913   -0.0025274    0.0012830    0.0012614   -0.0000195   -0.0001697   -0.0001322    0.0001882   -0.0002134    0.0001769    0.0015483   -0.0004541   -0.0002093   -0.0003363    0.0006659    0.0002031    0.0008773    0.0001805    0.0010716   -0.0002443   -0.0004926    0.0003610   -0.0014866    0.0009241   -0.0013128    0.0001090   -0.0002324   -0.0002072    0.0014136   -0.0014681   -0.0003924    0.0002910   -0.0001208    0.0000077    0.0002885   -0.0001296    0.0004160   -0.0015457    0.0011621    0.0004901   -0.0000776    0.0002874    0.0001126    0.0026457   -0.0005240    0.0014249   -0.0003106   -0.0000843    0.0002232    0.0008896    0.0001142   -0.0013066   -0.0000370    0.0009842   -0.0002633    0.0004165   -0.0001111   -0.0000319   -0.0003605    0.0005548   -0.0008721   -0.0009493   -0.0003728   -0.0002859    0.0004407   -0.0002962   -0.0003538   -0.0003656   -0.0010660   -0.0002689   -0.0007945   -0.0001291   -0.0002916   -0.0004314   -0.0000607   -0.0002381    0.0002170   -0.0000787    0.0001682    0.0002278    0.0004093    0.0012938    0.0002828    0.0000314   -0.0010547    0.0000545   -0.0000087   -0.0013174   -0.0018198   -0.0002273    0.0012969    0.0033939    0.0017751   -0.0003625   -0.0000231    0.0008891    0.0009554    0.0002077   -0.0005636   -0.0004983   -0.0005970   -0.0004957    0.0000103   -0.0000051   -0.0002540   -0.0003132   -0.0012038   -0.0002165    0.0002962    0.0015447    0.0008855   -0.0014403   -0.0027290   -0.0002705    0.0014995   -0.0020749    0.0026981   -0.0004602    0.0064072    0.0006006    0.0003229   -0.0009410    0.0003877   -0.0009035    0.0005502   -0.0000751    0.0004191    0.0002890    0.0005651   -0.0014434   -0.0002124    0.0004294   -0.0001203    0.0015751    0.0019463    0.0015977    0.0005055   -0.0006618    0.0000895    0.0015216   -0.0011205    0.0010362   -0.0007148   -0.0011231    0.0000874    0.0003517    0.0012820    0.0001584    0.0005533    0.0002391    0.0005965   -0.0001378   -0.0011087    0.0004736    0.0005764    0.0001239    0.0005518    0.0003800   -0.0006597    0.0004057    0.0123315   -0.0023438   -0.0010279    0.0013766   -0.0000674    0.0003142    0.0009724   -0.0002299    0.0015766    0.0005595   -0.0021695    0.0003528   -0.0007240   -0.0002808   -0.0003790   -0.0006448    0.0011030    0.0003070    0.0006356    0.0009996   -0.0003486   -0.0005152    0.0010254   -0.0008459    0.0002849   -0.0003826    0.0002365    0.0023017   -0.0084260   -0.0000447   -0.0000895   -0.0020780    0.0013406   -0.0002278    0.0015134   -0.0003960    0.0001959    0.0010428   -0.0001836   -0.0003214   -0.0008644    0.0002998   -0.0009811    0.0011601    0.0000602   -0.0006469   -0.0003317    0.0015457   -0.0012789    0.0000725   -0.0023721    0.0003106    0.0007425    0.0004268   -0.0015637   -0.0009467    0.0001152   -0.0019839   -0.0001748   -0.0001728   -0.0002890    0.0000262    0.0000555   -0.0058698   -0.0020723    0.0010151   -0.0004582    0.0038896   -0.0008922   -0.0008120    0.0011009   -0.0002509   -0.0004906   -0.0003471    0.0004042    0.0005024   -0.0023958    0.0009061   -0.0016486   -0.0005554    0.0000746    0.0056677    0.0123783   -0.0012136    0.0002247   -0.0047164    0.0003291   -0.0011447    0.0006947   -0.0002941    0.0002828   -0.0002664   -0.0001342    0.0014300   -0.0014429    0.0004422   -0.0019561    0.0007970    0.0008392    0.0007672    0.0006572   -0.0016388   -0.0005353    0.0002890    0.0018306    0.0000144    0.0011195    0.0002895   -0.0004685    0.0010901   -0.0007590   -0.0014702    0.0037039   -0.0015221   -0.0009508    0.0006325    0.0010531    0.0004793    0.0018394    0.0006623   -0.0042763   -0.0084276    0.0013257    0.0002700   -0.0004433    0.0008330   -0.0001923   -0.0006078   -0.0014007    0.0003214   -0.0007544    0.0003528   -0.0003096   -0.0007096   -0.0007317   -0.0014465    0.0012048    0.0004366   -0.0010809    0.0003594    0.0007760   -0.0088137    0.0018291   -0.0016481    0.0017777    0.0022590    0.0039729   -0.0015329   -0.0017406    0.0038875   -0.0011796   -0.0018656    0.0045822    0.0000653    0.0002926    0.0001743   -0.0001574    0.0000704   -0.0007497   -0.0000972   -0.0000972    0.0004350    0.0001733   -0.0024842    0.0005142   -0.0008120    0.0021731    0.0015915    0.0003394    0.0000622   -0.0015910   -0.0012038   -0.0006525    0.0010696   -0.0012120   -0.0025747    0.0001661   -0.0014506    0.0002170   -0.0002787    0.0025120    0.0027567   -0.0020924   -0.0034401    0.0059850   -0.0129861    0.0006613    0.0002016    0.0004587    0.0007816   -0.0017314   -0.0001445    0.0009765    0.0001676    0.0006603    0.0004366    0.0028760   -0.0001568    0.0008865   -0.0005656    0.0000797    0.0008793    0.0007518    0.0003054    0.0005358    0.0021968   -0.0010506    0.0003610   -0.0006022   -0.0001548    0.0026297    0.0034360    0.0019869   -0.0008212   -0.0000530   -0.0029815    0.0005574    0.0001018    0.0002458    0.0008469    0.0006654    0.0000051    0.0015221   -0.0003512    0.0002602    0.0000000   -0.0005610    0.0002900    0.0069775    0.0009107    0.0085068   -0.0002319    0.0023685    0.0002052   -0.0030565   -0.0003399    0.0001378   -0.0004114   -0.0000077   -0.0002468   -0.0008253   -0.0004885   -0.0004433   -0.0015689   -0.0011544   -0.0016784   -0.0005842    0.0010300    0.0006001    0.0024425    0.0005255   -0.0000190    0.0009698   -0.0003168   -0.0012526   -0.0012398    0.0016121   -0.0026071    0.0009477    0.0002921   -0.0051386   -0.0050733   -0.0020435    0.0037055   -0.0022533    0.0064915    0.0026313    0.0046882    0.0013596    0.0015499 
  -0.0006335   -0.0008346    0.0017766    0.0040881   -0.0018795    0.0005230   -0.0001656    0.0007801    0.0000293    0.0033059    0.0006788   -0.0020595    0.0025546   -0.0024282   -0.0023017   -0.0003785   -0.0014732    0.0008048    0.0030308   -0.0003522    0.0018574    0.0173277    0.0052481    0.0121875   -0.0008001    0.0002412   -0.0000864   -0.0015190    0.0000334   -0.0013447   -0.0009955    0.0034499   -0.0004330   -0.0010356    0.0016157    0.0010588   -0.0002772   -0.0006757    0.0003394    0.0027033   -0.0013987    0.0017134    0.0000360    0.0006160    0.0011051    0.0024076    0.0033347    0.0024672   -0.0011832   -0.0000489   -0.0005579   -0.0034257    0.0015401    0.0002293   -0.0017175    0.0004217   -0.0005574   -0.0010552   -0.0006474   -0.0013992   -0.0013735   -0.0006813   -0.0004649    0.0000946   -0.0019864    0.0001825   -0.0033388    0.0051407   -0.0010675    0.0003327   -0.0014599   -0.0007055   -0.0027593   -0.0004607    0.0004705   -0.0020883   -0.0004196    0.0009328   -0.0017720   -0.0012403    0.0008305   -0.0001954   -0.0009760   -0.0036335    0.0003265    0.0002448    0.0003610   -0.0007595   -0.0001481    0.0001717    0.0022199    0.0039508    0.0000010    0.0030534   -0.0004124    0.0013380    0.0000365   -0.0009271   -0.0003569   -0.0003512    0.0000653   -0.0004073   -0.0016671    0.0013683   -0.0021577    0.0010176    0.0006099    0.0000926    0.0048738   -0.0101631   -0.0045416   -0.0003785   -0.0018214   -0.0005497    0.0006150   -0.0011729    0.0073492   -0.0007394    0.0022040   -0.0001682    0.0006037   -0.0027027   -0.0003574    0.0005446   -0.0018003   -0.0005842    0.0066617   -0.0019633    0.0012012    0.0005523    0.0006243   -0.0015463    0.0005255    0.0010578   -0.0019741   -0.0023181   -0.0014820   -0.0030750   -0.0006747   -0.0006618    0.0006412    0.0002175   -0.0021464   -0.0013565    0.0001635    0.0009385   -0.0004618    0.0004443   -0.0003044    0.0013735    0.0002653    0.0001579   -0.0019654    0.0005980    0.0001990    0.0011668   -0.0065949   -0.0005430   -0.0006824    0.0007955   -0.0007204   -0.0003558   -0.0004556    0.0007328    0.0006402   -0.0013632    0.0016177   -0.0010865   -0.0014121    0.0019134   -0.0048666   -0.0011858    0.0013833   -0.0001028   -0.0045925    0.0001244    0.0002299   -0.0009025    0.0010084   -0.0007487   -0.0125429   -0.0030354    0.0204552    0.0056040    0.0005430    0.0010459    0.0058266   -0.0038001    0.0043123    0.0008233   -0.0011760    0.0003337    0.0038572    0.0001872   -0.0014568   -0.0039646    0.0022034   -0.0012562   -0.0006181   -0.0014547   -0.0035065   -0.0095650    0.0037610    0.0041811    0.0045678   -0.0048666   -0.0001692   -0.0015406    0.0060277    0.0027058    0.0016728   -0.0010752    0.0028956    0.0168135    0.0061953   -0.0001980   -0.0006747    0.0031635   -0.0009462    0.0002792    0.0005111    0.0008706   -0.0012876   -0.0013771   -0.0007816   -0.0028241    0.0009909   -0.0006592    0.0068294   -0.0003924    0.0020096    0.0003142   -0.0016054    0.0021952    0.0004952   -0.0002299   -0.0008238   -0.0008078   -0.0002314   -0.0004849    0.0000504   -0.0001964   -0.0003348    0.0000756    0.0002808    0.0002170   -0.0003162    0.0008428   -0.0005240    0.0004402    0.0000144   -0.0002602    0.0004422   -0.0054435    0.0040659   -0.0003301    0.0014532    0.0003260   -0.0004103    0.0016656   -0.0012938    0.0017499    0.0002350   -0.0005770    0.0008515    0.0004397   -0.0003600    0.0002946   -0.0003723    0.0002129    0.0004654    0.0013663   -0.0018224   -0.0012568   -0.0010367   -0.0021566   -0.0061177    0.0030925    0.0005471    0.0001008   -0.0011961   -0.0002149   -0.0027053    0.0007821    0.0003409   -0.0006695   -0.0016090   -0.0004751    0.0004232    0.0001455    0.0010958   -0.0021474    0.0018836    0.0015170    0.0011611   -0.0024981   -0.0022965   -0.0007621   -0.0009014    0.0015632   -0.0000288    0.0005811   -0.0005811   -0.0001769    0.0001116    0.0002355    0.0013905    0.0016327   -0.0007101    0.0038726    0.0005780   -0.0010254   -0.0005780   -0.0003749   -0.0001532    0.0011971    0.0010927    0.0011009    0.0088245   -0.0036263    0.0089377   -0.0000067    0.0022677   -0.0011277    0.0009076    0.0000427   -0.0012825    0.0007893    0.0002700    0.0003132    0.0029959   -0.0012686    0.0014547    0.0001322    0.0006788   -0.0009559   -0.0006176    0.0001527   -0.0002242   -0.0006160    0.0007050   -0.0035610   -0.0008022   -0.0000231    0.0008042   -0.0008922    0.0017674   -0.0003728   -0.0001743   -0.0009235    0.0021608    0.0006700    0.0001604    0.0001203   -0.0010146   -0.0009899    0.0008654   -0.0018409   -0.0025356   -0.0002576   -0.0022991   -0.0008042   -0.0004294   -0.0014768    0.0018461    0.0018008    0.0009045   -0.0022271   -0.0009349   -0.0001445   -0.0005425    0.0003744    0.0017787    0.0000283   -0.0006567   -0.0004911    0.0001784   -0.0003214    0.0005420   -0.0001147   -0.0002360   -0.0018784    0.0009354   -0.0027279   -0.0007364   -0.0015473   -0.0024616   -0.0005204    0.0011971    0.0007173   -0.0000956    0.0000108    0.0006315    0.0008562    0.0005050   -0.0033239    0.0007544   -0.0009940   -0.0012593    0.0023361    0.0020394   -0.0003682    0.0002221   -0.0016748    0.0001831   -0.0006567   -0.0009343    0.0015118    0.0001368    0.0002119   -0.0004875   -0.0006885   -0.0001090    0.0003065   -0.0001430   -0.0016213    0.0026662   -0.0019587   -0.0001517   -0.0025829    0.0004541   -0.0008716    0.0002633    0.0002556   -0.0007348   -0.0002777   -0.0004345   -0.0003846   -0.0001579   -0.0007425    0.0121480    0.0092724   -0.0011138    0.0013575    0.0004427    0.0000134   -0.0004988    0.0003013   -0.0004124   -0.0002499   -0.0001049   -0.0027377    0.0008582   -0.0002700    0.0004942    0.0002910    0.0005188    0.0001147   -0.0001280    0.0006191    0.0009241    0.0001394   -0.0006556    0.0008114   -0.0002890    0.0004592   -0.0012506   -0.0041549    0.0101805    0.0008228   -0.0003085   -0.0007780    0.0000643   -0.0015123   -0.0007343    0.0002540    0.0007832   -0.0009451    0.0001018    0.0003265   -0.0001635   -0.0005348   -0.0001877    0.0002160    0.0005137    0.0001928   -0.0000648   -0.0010490    0.0005194   -0.0009230    0.0000458   -0.0004263    0.0005749   -0.0057104    0.0011524   -0.0077010   -0.0015663    0.0003780    0.0009950   -0.0038165   -0.0038772    0.0048599   -0.0060976   -0.0090709    0.0027562 
  -0.0004613    0.0009097   -0.0001733    0.0012125    0.0041534    0.0017401   -0.0005050   -0.0048059    0.0004366   -0.0008253    0.0001234    0.0000165    0.0003970    0.0002926    0.0019268    0.0001414   -0.0024441    0.0003898   -0.0017149    0.0043945    0.0062118   -0.0009107    0.0045611    0.0018527   -0.0004196   -0.0000314    0.0005276    0.0001589    0.0011339    0.0011441    0.0003044   -0.0019083    0.0016193   -0.0020708    0.0014604    0.0012562    0.0030462    0.0021788    0.0001368    0.0004669    0.0018687   -0.0001347   -0.0007256   -0.0002047    0.0010701   -0.0016743   -0.0073719   -0.0012485    0.0024693    0.0003363   -0.0011529   -0.0009801    0.0015447    0.0005240    0.0009210   -0.0006669    0.0000972    0.0012526   -0.0003085    0.0002155    0.0004422    0.0005744    0.0006135    0.0012156   -0.0006772    0.0006207    0.0044773   -0.0004438   -0.0017124    0.0017052   -0.0014696   -0.0001548   -0.0000884   -0.0005734    0.0000180   -0.0165080   -0.0004767   -0.0010500    0.0005770   -0.0009184   -0.0007518   -0.0000756   -0.0007364    0.0012187   -0.0016388   -0.0020466    0.0008078   -0.0000730    0.0006649   -0.0008587   -0.0013493    0.0011914   -0.0000314    0.0010264   -0.0004088   -0.0010752   -0.0000663    0.0001265    0.0002941   -0.0008515   -0.0001028    0.0009873   -0.0013869   -0.0000735    0.0004422    0.0009863   -0.0003404    0.0007317   -0.0005554    0.0009086    0.0012346   -0.0000782    0.0002453   -0.0010459    0.0017741   -0.0000154   -0.0037584    0.0030108    0.0012722   -0.0000843    0.0006885    0.0014702    0.0013807   -0.0000905   -0.0006289   -0.0005214    0.0048481   -0.0032977    0.0003970    0.0006767   -0.0009163   -0.0008228   -0.0008973    0.0002900    0.0027264   -0.0001532    0.0011477   -0.0003276   -0.0004417   -0.0001116   -0.0022307   -0.0001625   -0.0008670    0.0025444   -0.0001106    0.0004067    0.0008017    0.0011575   -0.0022595    0.0014630   -0.0017921   -0.0006608    0.0010464    0.0014311   -0.0047483   -0.0010865    0.0029084    0.0016003    0.0009703    0.0001738    0.0008449   -0.0006700   -0.0011997    0.0005579    0.0006042   -0.0005435   -0.0004258   -0.0017062   -0.0009117   -0.0005960    0.0028046   -0.0001383   -0.0001378   -0.0003970    0.0007770   -0.0009004    0.0003862    0.0003291    0.0004443   -0.0001214    0.0050378    0.0030010   -0.0009441   -0.0002746    0.0048321   -0.0010392    0.0038988    0.0015375   -0.0045987    0.0012002    0.0002725   -0.0014218   -0.0008829    0.0023346   -0.0009179    0.0012902   -0.0009318   -0.0015098   -0.0060015    0.0041683   -0.0067954    0.0014090    0.0004031   -0.0016954   -0.0024657   -0.0000159    0.0005353    0.0004016   -0.0007199    0.0005086    0.0022374   -0.0004304    0.0015308   -0.0034011    0.0000843    0.0015704   -0.0029871    0.0015056    0.0000195   -0.0002124   -0.0024261    0.0004232   -0.0005518    0.0015257   -0.0010022    0.0015319   -0.0007559   -0.0017412   -0.0015576    0.0018641    0.0005230    0.0008557    0.0017669    0.0005734    0.0000381    0.0003970    0.0000417   -0.0002823   -0.0011282   -0.0008022    0.0010099   -0.0020857   -0.0014650    0.0047751    0.0003209    0.0000658   -0.0005908    0.0010279   -0.0009328    0.0016080    0.0004690    0.0002083    0.0077493   -0.0121737   -0.0037857    0.0001908   -0.0050414   -0.0004237   -0.0019139    0.0013267   -0.0007029    0.0001507    0.0014846    0.0002561   -0.0000082    0.0002659   -0.0013869    0.0028318   -0.0010603   -0.0036834   -0.0030694   -0.0007215    0.0073364   -0.0002031   -0.0002664   -0.0001969   -0.0002401    0.0008680    0.0033486    0.0001872    0.0005137    0.0007729   -0.0012017   -0.0036931    0.0015370    0.0016805   -0.0004397    0.0035821   -0.0018548   -0.0003008   -0.0021587    0.0123896    0.0027660   -0.0012223   -0.0000026   -0.0020944    0.0025860   -0.0011508   -0.0000674    0.0005091   -0.0001568    0.0006099   -0.0003008   -0.0004921   -0.0007456    0.0006094    0.0024708    0.0006032   -0.0008413   -0.0095799    0.0014110   -0.0002926   -0.0007415    0.0005296    0.0008222    0.0001466    0.0007122   -0.0001604   -0.0015447    0.0093197   -0.0051083   -0.0000679   -0.0002067    0.0002592   -0.0007343    0.0012048   -0.0007950   -0.0000869    0.0002710    0.0007451    0.0009919    0.0060997   -0.0002946   -0.0004314   -0.0003589   -0.0002371    0.0006495   -0.0003522    0.0002854   -0.0028493   -0.0010943   -0.0038381    0.0003013   -0.0003224   -0.0000740   -0.0005163    0.0005718   -0.0010043    0.0002268   -0.0001311    0.0002252   -0.0017010   -0.0001373    0.0010907    0.0005487    0.0006829    0.0014414    0.0026662    0.0036155    0.0013899   -0.0009868   -0.0014583    0.0001861    0.0002072   -0.0003420   -0.0010526    0.0024631    0.0033882   -0.0025392    0.0002869    0.0002273    0.0003574    0.0023484    0.0016841   -0.0038762    0.0001532    0.0000396    0.0002319    0.0009333    0.0004937   -0.0015776   -0.0004088    0.0005831    0.0003245    0.0016080   -0.0059536    0.0009441   -0.0002268    0.0024981   -0.0001491   -0.0006978    0.0000499   -0.0002432    0.0009220    0.0021222    0.0011771   -0.0009184    0.0005862    0.0025392    0.0002083   -0.0017797    0.0011483   -0.0003620    0.0004381   -0.0001502    0.0002767    0.0003034    0.0002602    0.0000638    0.0000123   -0.0002468    0.0002684   -0.0002319    0.0007405    0.0042845    0.0031198   -0.0011318    0.0000339    0.0032144   -0.0030586    0.0005461   -0.0008279    0.0000010    0.0008305   -0.0000062   -0.0015740   -0.0004078   -0.0002401    0.0001543   -0.0019828   -0.0045015    0.0035440   -0.0004273    0.0011369    0.0011668    0.0004186    0.0003450    0.0010295    0.0006284   -0.0004165    0.0000674   -0.0005656    0.0005533    0.0006001   -0.0008284   -0.0012670   -0.0001131   -0.0000015    0.0001224    0.0002700    0.0003466    0.0003672   -0.0004489   -0.0004530   -0.0005132    0.0022842   -0.0084738   -0.0039873   -0.0085942    0.0005055   -0.0002916   -0.0000725    0.0007225    0.0011503   -0.0004001    0.0016717   -0.0034530   -0.0058493    0.0000447    0.0001352   -0.0001358    0.0000607    0.0000977   -0.0010356   -0.0010362   -0.0000766    0.0002751   -0.0003126    0.0004201   -0.0001723    0.0002767    0.0000715   -0.0002237   -0.0074295   -0.0002180    0.0027686   -0.0009852   -0.0012830   -0.0007281   -0.0020209   -0.0021659   -0.0004798   -0.0006700    0.0029629    0.0018656 