6.9772297246 4.2450560757 1.1968069662 7.9152521187 3.3369321179 2.4565712382 1.7916489623 11.4362782049 1.4022057581 1.7208182056 9.8506404884 2.5081876686 7.5878771351 9.5156106924 3.2111882425 13.5095341605 5.8147119490 3.5138003998 2.7133668912 12.5496978911 2.3985673296 12.6843926228 13.1549134388 3.0160372887 10.7225290654 6.8953681478 2.4333641128 12.8567644939 11.4260429533 2.6769476361 5.7604687494 0.7972388819 1.7865637514 6.2682544403 9.4466141293 1.7803178288 7.6799072993 12.7580435023 2.3413954544 10.9840356017 10.8306242413 3.0617552266 0.2689543998 8.3678320953 2.3762863850 5.9703317344 12.8177403548 3.0107350401 4.6182316157 11.9099115324 1.9617832011 4.7850634128 10.0384486805 2.5097205878 13.1386849754 0.8639418775 1.8262932903 3.2123145601 9.0652678813 1.9493274343 8.7788019559 4.7246359670 3.2348454641 7.9772583327 7.7521234951 2.8528621219 5.4263335801 4.4193343010 2.1650125217 10.7267174520 12.8434971479 2.7740647487 9.1275134054 10.4289552777 3.1022566682 9.0789397003 0.2734598117 2.6521674111 0.7124536644 3.3715136088 2.1106239272 6.0869339744 10.8650385543 3.7628823336 8.8709325708 1.8878459372 1.8109764661 1.3309565276 2.1296823037 4.1351499277 0.2671477335 4.0342013123 3.7929314707 11.9142401337 8.2721276780 2.2806380407 5.0546967746 6.0557144763 2.8998361654 11.2308280417 9.6854563803 1.5141134634 4.4557047048 1.6714791572 2.4711856973 2.4051714615 6.7098436163 3.9430858709 1.1478648359 1.6251219619 2.3137576267 11.4716757131 11.2127079361 4.9309190999 4.3451558907 0.2882176422 3.8322060400 9.1993876655 6.5419916322 3.3855575655 4.0654724901 3.3522224462 1.7325500682 11.6575699994 9.0748211345 3.8881495007 4.1436879345 7.1476247342 4.0122002779 2.8509381916 0.8852523550 1.7237953819 4.7229029595 8.9228743162 4.1683941769 0.7270664728 7.3864586418 4.0088449903 8.6010191422 0.8986437236 4.2238446296 1.6069311762 9.2788660403 4.3100896810 12.3932343139 3.3507771220 4.5573035313 1.4230921484 12.2369055511 5.4327849729 6.1828264050 3.1606637129 3.2907060099 1.2073695805 13.4066090289 3.3317414446 4.8920195703 4.7585079178 6.3166441167 3.6406314237 3.7896169229 5.3433180348 9.2555904339 7.1792303165 5.0769354162 2.8781384353 11.1183585883 3.6018100245 6.3732205956 -0.6680486592 4.8816895358 12.2104379271 9.6182686127 5.6834627463 12.6915468319 13.6421969021 4.8737603215 0.8498141447 4.2911698009 5.7136704398 4.6058769481 0.1132758845 5.7937103698 1.0170168140 0.4963670513 5.2720190819 5.6977234747 10.1225820421 5.5921451830 13.3741851936 7.7887629857 5.5462806965 4.5783865480 6.6049398426 5.6732181381 7.3955911117 9.2945540239 5.2007892888 2.2411997469 10.7405868882 5.5019810975 7.7202261373 0.2941403593 5.7713117595 2.9303607787 0.9937754584 5.9563907422 2.2642276737 2.9688598046 6.2817124377 12.7727291550 3.6997713310 6.3487926000 5.9984923390 1.3302264919 6.1044814045 4.4034255713 9.2792625444 6.7924764650 0.4188741657 9.9505422393 6.4156173857 6.7221990933 4.4985450900 6.1909078606 11.6395572107 12.7277341668 6.2993259128 9.8610536854 13.0305963892 6.1347068891 8.5226578025 8.1080968025 6.4508748791 11.7165001967 5.0615232891 6.7065095134 0.4789515920 1.8238420564 6.4697003316 8.4471944312 1.7322269435 6.8019391088 11.0443376505 8.6825057617 6.6465769075 -0.0904404183 12.9368136744 7.3188139386 7.0292579620 7.3132222274 6.9787071114 4.0404446944 7.4860431767 7.5178720970 0.5329970376 8.0077495217 7.3325268059 9.3026461604 6.6560718507 7.6408156333 2.2638065403 7.4588468093 7.2143112640 11.3686527547 0.5592059047 7.5999563535 8.9300475542 9.8621216324 7.6794368377 2.3694804444 10.9981144345 7.5014106467 2.5969614732 3.5383632033 7.8829039365 4.2063062845 11.6120631840 5.7597304197 11.9159173586 11.0034549870 7.3655755647 7.6719389571 5.7939982932 7.9981974976 6.9241389779 2.8438785931 7.2084091425 11.2214100428 6.4460816405 8.0317234953 0.4044574412 11.2134368348 7.9912458085 9.5076407199 0.3807011297 7.9514556714 13.1283385641 6.7473625736 8.0170244572 4.6250512405 5.6734307806 7.9280620899 12.7520801919 2.9696163198 8.2047075045 13.2850479556 1.0095317114 8.3653265066 10.7517405490 9.7507953794 8.3745828262 7.7507253629 12.9447070547 7.3557325720 7.9317304015 3.9066440314 8.3486336459 4.2283425719 11.1596465548 7.7995987244 5.1053604293 3.2946120679 7.5781791977 0.0910040100 9.2559853515 8.7669701082 1.4460114215 1.0437507166 8.9137411172 4.1379815242 3.7548516343 9.1556925731 4.0158209074 7.8442238744 9.2839121989 11.1157059317 5.2961649394 9.3752446658 7.8562071633 11.2668726770 8.3228792953 11.1488654750 8.0739895258 9.0628128788 12.5374238492 4.1713330729 9.6172140213 6.3631888528 12.9000089169 10.0287371287 0.7042915120 11.6741370017 9.6535703131 9.2971017587 12.5621005688 9.1951435856 4.6223430597 13.1331790086 7.7826972293 5.8851526265 3.8328996541 10.2702698027 9.2979894231 1.5592571419 9.4007359984 7.8147777078 2.6524592749 10.1152645498 0.4348601264 5.0502622853 10.1469959464 2.2404786299 1.1083383213 10.5148228550 12.6527084593 0.6540715713 9.9707863462 7.4608250961 10.4861540089 9.8870428658 6.2567685509 10.8299670988 7.2724530117 4.2071851241 10.8443454296 9.5432507521 3.9680911496 1.9986762139 9.7086656235 12.8339340509 7.3363055246 11.2523856585 6.9565285452 11.6542355102 11.2055352066 9.2015474608 0.1992435012 10.9520149901 12.6638560939 8.9724781217 10.3638634190 3.6970274052 6.7359426215 10.6995653432 1.1489911482 -0.0067468129 11.4437949895 12.3188308426 3.2018171638 11.0690879213 5.2903440443 6.6201982766 11.6809261152 6.5609499183 1.6806505207 8.8610306712 0.6862125406 11.6417723029 11.5173718793 12.7986085163 12.3561056181 12.3677543628 6.8199683150 5.1369261347 11.1216698287 1.6967339462 2.6561900891 11.3481547666 3.9168679382 11.6351954786 11.1991869898 8.3218735595 4.1494284794 11.0355029811 -0.0006274344 9.9105978356 11.5321422651 0.5801767703 6.1990313882 11.5682117184 3.3916173313 5.0460222538 10.2202231498 8.4106091268 12.3863135327 11.9008375008 10.6946358551 0.5256134642 11.8147846626 7.2232483600 6.2814464046 9.6052518302 0.2012767267 3.2320034076 12.1978458779 5.1792092596 0.5093027465 9.2967384284 2.4269897209 11.2032936745 12.0510463604 5.4231240457 11.2904865640 12.1497102805 3.8116739011 13.4076888427 10.6545358687 0.3765351414 4.9514059054 12.8849226680 11.3332273887 10.3001855650 9.9650781075 2.1837123200 7.1279542240 11.5675514272 7.8812728670 1.4430353004 11.4305344309 13.2245330161 1.7453378199 13.0329123123 12.5895835397 0.4511205143 11.8412913546 6.7061856860 5.1147600501 12.9868643804 5.3482710751 6.4757403991 12.6446409679 7.3223793119 4.5431808924 13.4641643045
6.9359522950 4.2013788631 1.3023316147 8.0865814591 3.4270136862 2.4810696401 1.7914290459 11.4294572707 1.4139346577 1.7285142625 9.8448892896 2.5074431686 7.6133415024 9.5159552474 3.2475146483 13.5547983542 5.8185691567 3.5387138024 2.7092523690 12.5358409524 2.4270193179 12.6846383696 13.1151405251 3.0247064011 10.8502192755 6.9393737884 2.3531266581 12.8911178160 11.3927862287 2.7136878616 5.7253452285 0.8892292977 1.9719753614 6.2785497952 9.4422261501 1.8175474828 7.6547115807 12.7544857308 2.2951094316 10.9790699462 10.8335305397 3.0603361190 0.3143602004 8.3656846172 2.3839716209 5.9680481113 12.8262545981 2.9757440208 4.6187587529 11.9029422121 1.9488924646 4.7934944038 10.0373260222 2.5239150213 13.0786926736 0.8541831937 1.8277436710 3.2250558207 9.0708412995 1.9503502874 9.0241396424 4.8329285153 3.1091242240 8.0710613632 7.7940795375 2.8074595999 5.5707438130 4.3973391553 2.4985999083 10.7345885433 12.8207782285 2.7646337372 9.1343936217 10.4541225376 3.1442414345 9.0772231087 0.2525061830 2.6571544826 0.6591495090 3.3658598558 2.1125448804 6.0945574050 10.8617078338 3.8005197472 8.9302767042 1.8808240554 1.8659128959 1.3662502782 2.1266056068 4.1242049255 0.2669782406 4.0373516538 3.8122643030 11.9760385524 8.3378848399 2.2665494833 5.1982231498 6.1011554050 3.0381617762 11.2333674380 9.7376089222 1.5082213745 4.2295864205 1.5624962805 2.5544385977 2.4506312359 6.7078007461 3.9911538036 1.0610999126 1.6221904682 2.3086036535 11.4666547523 11.2375325590 4.9405417576 4.1495275833 0.1758824048 3.8504287485 9.3352435245 6.6328276763 3.3422752861 4.1044248715 3.3563845428 2.2918111882 11.6651076306 9.1026468111 3.8857355054 4.1896310679 7.1478863301 4.1006917395 2.7603533713 0.8583459009 1.6356443717 4.7162345373 8.9290559578 4.2050032854 0.7720519806 7.3877445553 4.0476305887 8.6453953857 0.8007262588 4.2632542284 1.6104899217 9.2742601192 4.3214476216 12.3866662208 3.3485212548 4.5555738238 1.4666064590 12.2609769646 5.4430963006 6.6109977095 3.4030950731 3.6144395826 1.1766068499 13.4064803732 3.3275637476 4.9271370499 4.7992809738 6.4019849504 3.6850785632 3.8604552403 5.3973239490 9.3484347977 7.2244992006 5.0513800184 2.8818112383 11.1016487883 3.6082705141 6.3180015110 -0.6061099350 4.8420695865 12.2032531507 9.6497486973 5.6844712830 12.6868787267 13.6379359472 4.8762270495 0.8529681025 4.2570489470 5.7187027054 4.5889329266 0.0771881759 5.8358709210 1.0140770307 0.4952047801 5.2695701190 5.7299026194 10.0897741754 5.6022223517 13.3623537883 7.7867859074 5.5531638135 4.6274260354 6.6432628788 5.7676343808 7.4150977388 9.2612278461 5.2042856619 2.2428614246 10.7376592796 5.5048614638 7.6742632751 0.3092791396 5.7877020870 2.9421305519 1.0304060810 5.9934061470 2.2966649203 2.9597066865 6.2647447750 12.7780600487 3.6593025862 6.3520610448 5.9654496950 1.3246132383 6.1502280682 4.4401671266 9.2588414208 6.8571014950 0.3959943151 9.9703770683 6.4039184342 6.8041915381 4.6157294423 6.3776509750 11.6019197910 12.7243819650 6.3084135248 9.8224222972 12.9751410851 6.1881455146 8.6136010309 8.1093215990 6.4568316157 11.7567149189 5.0477357251 6.7140910812 0.4739261378 1.8083293105 6.4671382085 8.4438261491 1.7454089677 6.7900268891 11.0414329063 8.7009711842 6.6455028979 -0.0933263792 12.9345324040 7.3230587146 7.1310858911 7.3077181056 6.9791748129 3.9511959405 7.4914973333 7.5685473647 0.4901413778 8.0104160996 7.3320876379 9.3864557468 6.6073317643 7.5907062847 2.2125304326 7.5016750691 7.1193080717 11.3426881282 0.5811949706 7.5857626014 8.9394733844 9.8732629899 7.6906433251 2.3667766097 10.9561887490 7.5028632222 2.5929323917 3.4838561309 7.8869348642 4.2057246225 11.5754512557 5.7733106035 11.9024701531 11.0192401761 7.3890829363 7.7651412343 5.7471663115 7.9471355495 6.9600389142 2.8524158248 7.2819853451 11.2684083270 6.4172921420 8.0435201561 0.4012218375 11.2141489656 7.9921307937 9.5021127084 0.3890940672 7.9587926972 13.1670393747 6.7084043138 8.0602085372 4.4902669725 5.6589086172 7.9884676269 12.7526452345 2.9557024721 8.2112877672 13.2849673181 1.0061936411 8.3586388732 10.7531569741 9.7544923968 8.4015422754 7.7011919566 12.9883738170 7.3873579888 7.9859029063 3.8559617760 8.4332736842 4.2276678609 11.1109514992 7.7996998374 5.1321093861 3.3092997183 7.5984439558 0.0520472709 9.2592224924 8.7604245877 1.4192673734 1.0848744122 8.9500338005 4.0920856695 3.7540029133 9.1603820110 3.8242244085 7.8280905773 9.3193611972 11.1230616210 5.2845795646 9.3934403962 7.8685723341 11.2977338692 8.3178593832 11.1503155919 8.0693054120 9.0552239061 12.5258910490 4.1444880071 9.6390790367 6.3275149959 12.9424501854 10.0732316219 0.7138008685 11.6716563965 9.6530881279 9.2994154249 12.5599943729 9.1923587732 4.5827049439 13.1190029143 7.7886074748 5.9057538896 3.8656994974 10.3149391074 9.2171118685 1.5439304025 9.4149297867 7.7174130369 2.6528219739 10.1629606894 0.3897497274 5.0080383218 10.2609372530 2.2234390522 1.1214310466 10.5481720056 12.6120969810 0.6090147323 9.9387238281 7.4519786384 10.5279797030 9.8792900393 6.2772666917 10.8541729071 7.2567957991 4.2085073637 10.8351065322 9.5522821164 3.9634478263 1.9958696343 9.7420928761 12.7620137980 7.3520699840 11.2971093503 6.9506765717 11.6756582632 11.2106245098 9.1954859814 0.2147342279 10.9541399659 12.6502517452 8.9643417614 10.3789697371 3.6087124511 6.6407583391 10.7240616033 1.1139510355 -0.0011885531 11.4471300476 12.2751725677 3.1447619399 11.0656631859 5.2010161351 6.4663387910 11.5284792444 6.5320554205 1.6931561979 8.8937126600 0.6791237811 11.6404414815 11.5154256950 12.7637436829 12.3492167394 12.3291996582 6.6277077237 5.3778649862 11.0841813163 1.6956367495 2.6535524665 11.3957907767 3.9128447543 11.6331425318 11.2027507547 8.4127487052 4.2075902807 11.0138435766 0.0079934823 9.9065369905 11.5293550591 0.4939428994 6.1969487889 11.6657342100 3.2566548768 4.9474693588 10.2226954041 8.4032089605 12.4182416382 11.9071730492 10.6768941520 0.5558932665 11.8057971686 7.2760064091 6.2758732666 9.5429780660 0.1683464016 3.2332239976 12.2002271186 5.1276182205 0.5044475812 9.3035274610 2.4212192035 11.2298428073 12.0603151972 5.4230347673 11.2959396269 12.1532362771 3.7759473907 13.4017230573 10.6523576311 0.2783927588 4.9174688124 12.9553585522 11.3243317168 10.2961456667 9.9958247005 2.1161984693 7.0340984867 11.6820859660 7.8795783503 1.5007585484 11.4856314719 13.2149909974 1.7335959831 13.0224648808 12.5889067666 0.4494801529 11.8071929090 7.2292577421 5.3373190395 12.8412503112 8.7164217166 4.1370688735 11.9349677729 6.6996979364 5.8519658971 13.4656908782
6.9441872026 4.2467133412 1.2329549591 7.9148580883 3.3755163863 2.4990712290 1.7950823536 11.3756807172 1.4010530302 1.6354021235 9.8165572619 2.5833989693 7.7036043225 9.5290329656 3.3835651634 13.5028693246 5.8127064423 3.5115136455 2.6983263086 12.5000168962 2.3911813255 12.6855404509 13.1579620793 3.0210819612 10.7243032245 6.8576913195 2.4372906282 12.9017905189 11.4062510478 2.7158982140 5.7723939274 0.7555255783 1.7786407784 6.6506089750 9.6839426597 1.7256593542 7.7102848352 12.7535422035 2.3480900353 11.0739490644 10.7999150791 3.0756066917 0.2481539102 8.3210943928 2.4263210539 6.0112415816 12.7715939769 3.0272893765 4.5764794704 11.9381553749 1.9682701772 4.7452250894 10.0304177640 2.2263400341 13.1372035397 0.8642766576 1.8303320609 3.0732158698 8.9161190430 2.1546314094 8.7498366990 4.7804836916 3.2814001944 7.9799778256 7.7907696451 2.8085934821 5.4174726078 4.4128487153 2.2331164356 10.7593984146 12.8252888417 2.7705656128 9.2172569942 10.4311064422 3.2825519133 9.0925938607 0.2698955808 2.6888914500 0.7137491565 3.3653552889 2.0908345347 6.0900014758 10.8363675762 3.6251402661 8.8453970940 1.8970703017 1.8771865880 1.3319439539 2.1346657913 4.1275235813 0.2578019534 4.0309935288 3.7700561950 11.9204788689 8.2259877793 2.3252615573 5.0029557622 6.0921719293 2.8592812421 11.2377853210 9.6448729831 1.5499152452 4.4502061655 1.5947830520 2.4605781163 2.3985510484 6.7095692393 4.1200184983 1.1504322313 1.6222239867 2.3150905493 11.5159220300 11.2011602857 4.9671307253 4.4222374717 0.2773650129 3.8537803318 9.1909933622 6.5860695916 3.3903170103 4.0986730327 3.3079161398 1.7829620605 11.7023616039 9.0551626416 3.9269801052 4.1429684661 7.1868339573 4.0144934322 2.8477247908 0.8415442251 1.7257353454 4.8153490754 8.9277072665 4.0514941186 0.7216272583 7.3467470403 4.1028079746 8.6454661973 0.8424408158 4.2809981569 1.5144505656 9.2657716429 4.3859447147 12.3786475067 3.3522875690 4.5286277325 1.3718423710 12.2042848786 5.4378287756 6.2347027610 3.2124319178 3.3810721312 1.2034120223 13.4043730279 3.3404405456 4.9232021067 4.7639936013 6.2714355567 3.6435608551 3.8225247986 5.3111260916 9.2711275869 7.3271820026 5.0353855635 2.8276075292 11.0955537633 3.6232627105 6.4258119886 -0.7601983732 4.9219316862 12.2025539132 9.6134240646 5.7398441412 12.6627412719 13.6462983609 4.8668505437 0.8469035284 4.2879169023 5.6735007754 4.6422957986 0.1153410405 5.7960705739 1.0119788328 0.4613856814 5.2770714350 5.5991450631 10.1486861752 5.4928425610 13.3668058710 7.7403058553 5.6440633559 4.6708722625 6.6227817004 5.6466577369 7.3753006873 9.3984171949 5.2831751105 2.1945270303 10.7071293689 5.5080918024 7.7715107129 0.2155635946 5.8263594860 2.9305666196 0.9879920531 5.9131463849 2.2480887363 2.9509213009 6.2037719187 12.7707290535 3.7030275855 6.3177156430 6.0362601292 1.2780779313 6.1272278969 4.3824350402 9.2587500444 6.7052497865 0.3906254386 9.9303479048 6.4696354777 6.8132794423 4.5849694691 6.3199659176 11.5959789918 12.7262099984 6.3166369334 9.8186303169 12.9860685452 6.1837048643 8.5655579761 8.1776299925 6.4829722098 11.7613171102 5.1008552629 6.6625606151 0.4693490151 1.8189820908 6.4426915882 8.4488388891 1.7060088925 6.8309756426 10.9980707697 8.6896551741 6.6855111775 -0.1079149728 12.9596765981 7.3151348446 7.0801351319 7.3199867522 6.8962036075 4.0454124318 7.4843694157 7.5611201976 0.5321841212 8.0099757073 7.4202592513 9.3449034448 6.6236056105 7.5499374241 2.2685802596 7.5090913827 7.3127320386 11.3466395808 0.5915089435 7.5955770212 8.8879152944 9.8827472249 7.7346938504 2.3649579204 10.9932849308 7.4871543733 2.5184133925 3.4889860137 7.8356754410 4.2302021308 11.6077552992 5.7310925579 11.8959285378 11.0099367377 7.4143355658 7.7320861509 5.7327862795 7.7973469539 6.9625887586 2.8077343390 7.2990646217 11.2644302262 6.4822597460 8.0073443046 0.4020614024 11.2575449061 7.9930177346 9.5066003423 0.4282212400 8.0636210737 13.1719318086 6.7034914477 8.1105738341 4.4410396647 5.5974784118 7.8414249651 12.7934130606 3.0249024183 8.1969137684 13.2452067669 1.0553603708 8.3637233524 10.7160386559 9.7682695069 8.4409339961 7.7531404154 12.9407166219 7.4610619535 7.9899110180 3.8781499955 8.3990487236 4.2275955001 11.1606704423 7.8052211059 5.1008287909 3.2592986241 7.4880992949 0.0750467565 9.2637066286 8.8164132529 1.4098058036 1.0425791438 8.9022064188 4.0375130425 3.7558598673 9.0220940376 4.1891207322 7.7455607428 9.3205954690 11.1335432194 5.3303598897 9.3361097359 7.7206095139 11.2521284188 8.3613305221 11.1447220276 8.0779884465 9.0911639151 12.6154547085 4.2807542390 9.5895212133 6.3328094290 12.8423122971 9.9835690694 0.7035558956 11.7140212696 9.6503285901 9.3449152501 12.6757730765 9.3266967552 4.5801281506 13.1314235792 7.7799930843 5.8453343930 3.8660634273 10.1039636716 9.2631343017 1.6402302826 9.4666364702 7.7282790924 2.7291876391 10.2206444351 0.5262310617 5.0526750876 10.2644642563 2.2415347849 1.1241395944 10.4831938631 12.6148268668 0.7031460635 9.9712657150 7.4989408003 10.4873527952 9.9788461786 6.1884016364 10.8130093767 7.3560201665 4.1577142084 10.8629877022 9.5507069726 3.9590787058 1.9912900133 9.6184303517 12.8970978313 7.3633651550 11.2973596150 6.9501811681 11.6791897706 11.2513640444 9.1937411836 0.2517198749 10.9969627653 12.6593587379 8.9808524097 10.4126189033 3.8379180004 6.6382052856 10.7952696763 1.1479636054 0.0297837303 11.4356682750 12.3219713854 3.2976801452 11.0078768958 5.3688735919 6.2866865150 11.7141860052 6.5630322882 1.6874508696 8.8920014982 0.6820964617 11.6899216758 11.5189983969 12.8028055413 12.4027004579 12.3736381633 6.6555457047 5.2864838595 10.8268127944 1.7481209493 2.6893095857 11.2939583606 3.9031769411 11.6762548684 11.2151460411 8.0741622173 4.2419968001 11.2493884853 -0.0038736862 9.9560895698 11.5405003028 0.6751978974 6.2525294765 11.6526144480 3.3946154595 5.0147129567 10.1770634244 8.3626539409 12.4671839936 11.9589460668 10.6918600591 0.5789765263 11.8598754089 7.1315369140 6.2886158479 9.3699635218 0.2481520126 3.3224485500 12.1059777975 5.1579686884 0.5070357047 9.2908519079 2.4158123468 11.2474523059 12.0645591287 5.3950499117 11.3316776100 12.1784911360 3.8237169266 13.4517070193 10.6747193744 0.4589021530 4.9664811274 12.9309059949 11.2890190557 10.2980555198 10.0273818419 2.3112769045 7.0850447350 11.6694644051 7.7941367983 1.4680923147 11.4540545098 13.2636056163 1.8374088030 12.9463845164 12.5879481985 0.5018297374 11.8404431678 4.6955495178 9.5990088581 0.4240617756 6.7527515656 9.1103489835 0.9494651971 3.8407786878 9.2241701758 0.1678408559
6.9476833080 4.1540582217 1.3068715552 7.8827188856 3.2567081996 2.5770422240 1.7489132819 11.4272125575 1.3684371860 1.6778881383 9.8474888671 2.5015801447 7.5766013623 9.4700236145 3.2107642075 13.4988710448 5.8942172605 3.5720888033 2.6298395808 12.5468094451 2.3816868402 12.5822283019 13.2048256775 3.0689440033 10.7145873406 6.8510367362 2.4044563968 12.7640504826 11.4608111269 2.6657043387 5.8612478631 0.8911600969 2.0296785405 6.2256357346 9.4364623371 1.7920317510 7.6442009034 12.7058594192 2.3918687350 10.9838369225 10.7990345738 3.0665359591 0.2689524274 8.3715358664 2.3945284187 5.9293816661 12.7728521674 3.0739169099 4.6055713881 11.9159984483 1.9708302758 4.7514917608 10.0389326048 2.5194869852 12.7607869502 1.0711729728 2.0091281201 3.1765943585 9.0679137228 1.9650148838 8.7426484651 4.6740369275 3.2851530867 7.9415169328 7.6991315942 2.8181339652 5.4000289271 4.4349370319 2.2397537544 10.6269562819 12.8396869647 2.8589736826 9.1172473270 10.3508739177 3.0893012136 8.9996810429 0.2709074109 2.6928911349 0.4680145770 3.4863726130 2.1067513746 6.0518630460 10.8416725918 3.7885170799 8.8351448329 1.8769367279 1.8138048053 1.4070065682 2.2140385227 4.0485436198 0.2154873728 4.0822898135 3.8171346549 11.9161688205 8.2314995217 2.3205433059 5.0116875697 6.0908249849 2.9164727830 11.2364769765 9.6303157169 1.5337205180 4.6152176486 1.7696690659 2.8019997418 2.3970985873 6.7549181406 4.0841743722 0.8736481385 1.7168393547 2.0432056816 11.4270447962 11.2222876286 4.9594226475 4.3029961512 0.2325289768 3.9068182696 9.1868913694 6.5044062061 3.3430154934 4.0897293157 3.3158909721 1.8292188134 11.6587190718 9.0709537541 3.9181405756 4.1445704006 7.1501088805 4.1006079014 3.0660275629 0.8906294406 1.7744212464 4.6747573235 8.9277359350 4.2154736505 0.7264412311 7.4388081726 4.0890546044 8.4583752648 1.0003499444 4.2144193808 1.5573995894 9.3443666654 4.3187139374 12.3614537730 3.3886629653 4.6040125763 1.5029301144 12.4062457042 5.3942614317 6.0866640695 3.1767734453 3.4477093229 1.0893942621 13.4939731936 3.1294908031 4.9274739652 4.7631337508 6.3254961550 3.6766692816 3.8670261565 5.2995092097 9.3164288246 7.2159040244 4.9976290126 2.8271112905 11.1540270860 3.5741146314 6.3428748734 -0.7077220209 4.9642768399 12.1583407960 9.6535520853 5.7275422018 12.6911260204 13.6425289148 4.9002957846 0.8488107382 4.2965226287 5.7252332715 4.6054056240 0.1104784581 5.8830424645 1.0609473634 0.6567135284 5.1178992801 5.6991179131 10.0979967622 5.6247585589 13.3528093319 7.8374002297 5.6224004764 4.6376330372 6.6201017576 5.7472746211 7.4136655982 9.3002139581 5.1933720967 2.1900287054 10.8395317637 5.5033123821 7.7143033432 0.2917944644 5.8028538536 2.9712413218 1.0912781016 5.9531640418 2.2888684637 2.9992742554 6.2051187370 12.7836390322 3.7025300650 6.3892526125 5.9885378596 1.3199013553 6.1474015130 4.4839626942 9.2214189328 6.9318580300 0.3710330552 10.0525056331 6.4045926065 6.8107899332 4.5895652167 6.3464122368 11.5939994709 12.7424582314 6.3208425763 9.8172487828 13.0767402784 6.1313772979 8.6550819513 8.1483249904 6.3990105775 11.7664828838 5.0872194953 6.7539058482 0.4784765147 1.8094158342 6.4202118867 8.4199219528 1.7482500243 6.8279470067 10.9540214628 8.6917394425 6.6548708250 -0.1813121263 12.8942519036 7.4001280861 7.1670608666 7.3146043624 6.8852940747 3.9965563852 7.4460506212 7.6131960764 0.4955978230 8.0523447739 7.3831235708 9.3968789163 6.5990507643 7.5553595809 2.2324309425 7.5500627147 7.2663805790 11.3340539869 0.6079512331 7.5977547323 8.9251284119 9.9159047814 7.6897298183 2.3346546569 10.9924516716 7.5052325960 2.5344065774 3.4997653287 7.8488461860 4.1680199073 11.5187444588 5.7939199676 11.8412731750 10.9972584279 7.4033146978 7.7687611223 5.7401966965 7.8055302412 6.9308722718 2.8194987469 7.3441927181 11.2663006454 6.4453899939 8.0835119324 0.3556507421 11.2187736631 8.0423878627 9.5000221666 0.4387863058 8.0142145694 13.1687856643 6.7526566277 8.1016617728 4.4415759685 5.5767455253 7.9198174595 12.7898919967 2.9687701154 8.2297761468 13.2821930672 1.0045513956 8.3725851623 10.7122805205 9.7621252179 8.4333336521 7.7425563094 12.9878645768 7.4117195845 7.9847462995 3.8763505323 8.4385649537 4.1817497786 11.0691264541 7.8403551902 5.0826117359 3.2573172300 7.5108315011 0.0058247768 9.2984104905 8.7802585944 1.4279569989 1.0407462586 8.9134749922 4.0303948537 3.7603474449 9.0701068542 4.0552936343 7.7111833870 9.3834463635 11.1293513099 5.2940696892 9.4241136147 7.8235455403 11.3020813957 8.3256110771 11.1362181404 8.0758808929 9.0931656860 12.5441147507 4.1623955597 9.6559754286 6.3263488692 12.8977890528 10.0305731257 0.7526681456 11.6634298721 9.6993276475 9.3043410058 12.6194412808 9.2414948630 4.5778653329 13.1025140658 7.8021818945 5.8047704922 3.8656807597 10.1153216576 9.2575950428 1.6083746571 9.4635938489 7.7271989638 2.7211488394 10.2330210560 0.4299116321 5.0079058554 10.2600156000 2.2343801041 1.1128209366 10.5156536593 12.6414111097 0.6164272885 9.9661494420 7.4609410816 10.5144810675 9.8984524884 6.2622810294 10.8649077856 7.2731600951 4.1591951557 10.8415797890 9.5968229659 3.9439101787 1.9893340849 9.6570950755 12.8459303031 7.3585021476 11.2964303897 6.9585748528 11.6773483183 11.2165366378 9.1985716147 0.2416455132 10.9845487109 12.6330544475 8.9877579185 10.4240417874 3.7524523148 6.6212209469 10.8531209572 1.1483681998 -0.0035192004 11.4488849812 12.2987682201 3.1555358158 11.0749892994 5.3287713942 6.2836561941 11.7172099643 6.5550840607 1.6920869852 8.9216314348 0.6972480443 11.6457134693 11.5593442546 12.7948117876 12.3624976931 12.3783359591 6.6143036419 5.2920262821 10.8227074587 1.7046180291 2.6527966437 11.3501911738 3.9187074213 11.6752200769 11.2485748066 8.0313488388 4.2421042411 11.2563087749 0.0020762760 9.9142906396 11.5676737494 0.5808728798 6.1984451271 11.6617379481 3.3365484659 4.9952132378 10.2214905160 8.4050441162 12.4205269402 11.9116964652 10.6924685128 0.5625316865 11.8492569169 7.1320552027 6.2880183799 9.3713852376 0.2002968522 3.2332665620 12.1960310151 5.1343508492 0.5042058290 9.3034130542 2.4435923537 11.2417848649 12.1201197220 5.4300493290 11.3304774083 12.1847599847 3.8151080908 13.4442398235 10.6900956750 0.3352211929 4.9213372303 12.9460703125 11.2839577507 10.2991358539 10.0340275316 2.2115906898 7.0327903862 11.7229943841 7.8392023840 1.4664413679 11.4840698870 13.2547274874 1.7385418428 13.0300785904 12.5892797344 0.4542452307 11.8420251812 1.2804817540 1.4727766776 0.2419721598 3.0166853431 1.1153973060 0.8206809003 0.5998018971 1.6837574447 -0.4118489824