-133309.9443987
-133310.4760265
-133309.6114768
-133309.9392349
-133302.7523466
-133303.7225482
-133304.1584501
-133302.5544020
-133302.2479473
-133303.3488955
-133303.6917370
-133301.5562277
-133301.3188886
-133302.3181563
-133303.8520804
-133301.2293362
-133304.9674172
-133302.4417640
-133301.9744184
-133303.1488069
-133303.1777347
-133301.8019464
-133302.3328624
-133302.0946859
-133310.2468555
-133303.1139846
-133307.1373547
-133306.3023281
-133306.9327383
-133306.2123332
-133306.1346143
-133306.0440958
-133306.8691524
-133307.6682115
-133307.0085111
-133305.9983885
-133306.4836916
-133307.5779845
-133307.1302447
-133306.3861161
-133306.0001750
-133307.5152326
-133306.1967254
-133307.3838956
-133308.0734599
-133307.1992115
-133306.3921255
-133306.7196387
-133305.4714570
-133306.8286662
-133306.5389205
-133306.6802514
-133306.0838678
-133307.2375040
-133307.2517605
-133306.1943254
-133306.8130211
-133305.9669201
-133306.9027855
-133307.2713484
-133304.5579903
-133306.9027201
-133305.8716117
-133306.1299196
-133307.0144735
-133307.0483495
-133308.1991693
-133304.7891880
-133306.5902776
-133306.8715369
-133307.3273242
-133307.1071491
-133306.4463876
-133305.9724250
-133306.8172048
-133306.8628984
-133307.2754919
-133306.2396209
-133307.1887572
-133307.4839881
-133305.5342617
-133307.0381920
-133307.2089372
-133305.6738238
-133306.6745917
-133305.6777746
-133306.3900794
-133307.1122805
-133307.4108975
-133304.9829234
-133307.1335371
-133306.9423395
-133306.9040394
-133307.5153453
-133307.4831902
-133305.8709256
-133305.7842430
-133307.0389500
-133306.5814860
-133307.3748222
-133307.0073831
-133307.3188003
-133307.6580741
-133306.7062853
-133306.7340614
-133307.3279611
-133306.2544719
-133306.0964465
-133306.8743211
-133307.3161625
-133305.9925621
-133306.8460721
-133306.9634194
-133307.2509760
-133306.8920111
-133306.0799290
-133307.4636844
-133306.7284980
-133305.1643766
-133304.9783641
-133307.3454461
-133307.7089557
-133308.0257070
-133307.4232005
-133305.5350194
-133307.8079022
-133304.1757808
-133307.4819944
-133305.0208234
-133307.2118579
-133308.1233394
-133304.7713797
-133305.2412691
-133307.0729759
-133307.6600330
-133301.7810391
-133303.2546385
-133305.3516788
-133308.4194271
-133304.7058942
-133305.2611644
-133307.0590655
-133308.8260610
-133304.6712423
-133308.2840745
-133302.4263094
-133307.2471291
-133306.4868795
-133303.8013602
-133307.8397794
-133304.0843346
-133305.2377337
-133306.8844611
-133307.4937866
