   0.0016111   -0.0006623   -0.0000432    0.0002201    0.0006505   -0.0004088   -0.0006104   -0.0006618   -0.0012521    0.0002170    0.0003774    0.0005415   -0.0050841   -0.0023371    0.0088821   -0.0003281    0.0013514   -0.0004062   -0.0010068   -0.0012748    0.0004947   -0.0027732    0.0083818   -0.0012876    0.0016568    0.0002916    0.0004062   -0.0037842   -0.0003378   -0.0000941   -0.0000273    0.0003780    0.0009066    0.0003548   -0.0003168   -0.0020322   -0.0033214   -0.0008881    0.0008084   -0.0081468   -0.0010799   -0.0005780   -0.0014588   -0.0011807   -0.0001774    0.0009472   -0.0033280   -0.0014599   -0.0008803   -0.0005039   -0.0004772    0.0040629    0.0001861    0.0044480   -0.0012388   -0.0009277   -0.0002232   -0.0004962    0.0002489    0.0024384   -0.0014804    0.0004222   -0.0000576    0.0006783    0.0011992   -0.0007986    0.0071168    0.0006099    0.0002674    0.0003579    0.0020965    0.0000967   -0.0011287   -0.0036134    0.0002139    0.0029851   -0.0000036   -0.0005626   -0.0005394    0.0010403   -0.0002638    0.0009246    0.0024641    0.0015941    0.0012269   -0.0010639   -0.0015848    0.0002628   -0.0014491    0.0002129    0.0019026   -0.0023968   -0.0000370    0.0025161   -0.0009986    0.0005497    0.0006299    0.0005302   -0.0000591   -0.0006181    0.0037106    0.0006829    0.0000514    0.0017735   -0.0023654   -0.0003795    0.0000591   -0.0004494   -0.0009009   -0.0007071   -0.0009570    0.0030375   -0.0002067    0.0044758    0.0009127   -0.0003075    0.0005487   -0.0016177    0.0008731    0.0013570    0.0004402   -0.0024688   -0.0007646   -0.0019474   -0.0000977   -0.0042464    0.0001707    0.0006063   -0.0009760   -0.0003080    0.0012321    0.0004299   -0.0016455   -0.0017324    0.0013622    0.0015092   -0.0008197    0.0028334   -0.0003553    0.0006582   -0.0001568   -0.0004160    0.0006633   -0.0002335    0.0002011    0.0004139   -0.0001728    0.0003661   -0.0003882    0.0002047    0.0015139    0.0010922   -0.0020816    0.0017401    0.0001527    0.0004582   -0.0002869    0.0004114   -0.0006109    0.0000185   -0.0002818    0.0002957    0.0011369   -0.0017761   -0.0029604    0.0007364    0.0010403    0.0007626    0.0000828   -0.0006690    0.0000689   -0.0056811    0.0042562    0.0002309    0.0015380    0.0003198   -0.0006675   -0.0004155   -0.0000278    0.0001352   -0.0006073    0.0008233   -0.0021818    0.0025387   -0.0025778    0.0019170   -0.0025876    0.0009472   -0.0039415    0.0002689    0.0016594   -0.0006145    0.0000555    0.0001373   -0.0003666    0.0055618   -0.0011138    0.0004191   -0.0000442    0.0000149   -0.0011020   -0.0005296   -0.0001903    0.0003795    0.0002952    0.0000113    0.0004582    0.0002689   -0.0004119   -0.0003276    0.0005919    0.0000627    0.0005862   -0.0007220   -0.0002494   -0.0000638    0.0007713   -0.0002869    0.0000679   -0.0008742   -0.0008361   -0.0004319   -0.0002335    0.0001208    0.0001712   -0.0001882   -0.0022729   -0.0005122    0.0000679   -0.0001239   -0.0004510   -0.0002926    0.0019438   -0.0005605    0.0001861   -0.0005374    0.0003584   -0.0000273   -0.0001018   -0.0011457    0.0005374    0.0000797   -0.0003265    0.0002443   -0.0015226    0.0001378   -0.0000046    0.0009852    0.0007292    0.0000242    0.0006232   -0.0001774   -0.0013380   -0.0018820   -0.0009230   -0.0007590   -0.0008397   -0.0003363    0.0002129   -0.0006464   -0.0002684   -0.0009863    0.0005276    0.0004402    0.0002257    0.0002427    0.0000211    0.0002653    0.0006669    0.0008428   -0.0004710    0.0001409   -0.0003713    0.0004083    0.0003255    0.0003018    0.0011657   -0.0013174    0.0004289   -0.0003615   -0.0016337    0.0003744    0.0024456   -0.0012912   -0.0004083   -0.0000602   -0.0002170    0.0004690   -0.0020404    0.0011477   -0.0003363   -0.0041729    0.0012372   -0.0012388   -0.0009390    0.0008012    0.0000159   -0.0004926    0.0007518    0.0006896    0.0004011   -0.0006587    0.0008531   -0.0004175    0.0010860   -0.0001774    0.0002360    0.0054574    0.0000674    0.0024456    0.0006618   -0.0005842   -0.0000051   -0.0004319   -0.0003677   -0.0002520    0.0001347    0.0003152   -0.0075513    0.0011940    0.0019618   -0.0000478    0.0003605   -0.0001291   -0.0004541   -0.0001903   -0.0001502    0.0000170   -0.0003538    0.0001877   -0.0002674   -0.0011493    0.0006058   -0.0000195   -0.0000015    0.0000226    0.0005677    0.0001486   -0.0006767    0.0004823   -0.0006304   -0.0007677    0.0009163   -0.0016908   -0.0023217    0.0002021   -0.0009112    0.0004273   -0.0000766   -0.0000185   -0.0002910    0.0000905   -0.0002910    0.0000689    0.0002468   -0.0010439    0.0005384    0.0002818   -0.0002350   -0.0005260    0.0000422    0.0003533   -0.0002458    0.0003960    0.0005060   -0.0003702    0.0001090   -0.0007091   -0.0002895    0.0001856    0.0005857    0.0002427   -0.0004978   -0.0000807    0.0007456    0.0002551   -0.0001723   -0.0001728    0.0000175    0.0001728    0.0001208   -0.0001831   -0.0004803   -0.0005692    0.0003029   -0.0003003   -0.0003620   -0.0000154   -0.0004021   -0.0000165   -0.0004638    0.0013035   -0.0007528   -0.0001373   -0.0000545    0.0001692   -0.0000458   -0.0001322   -0.0003985   -0.0007646   -0.0010310    0.0022420    0.0001260   -0.0001255    0.0002998    0.0003234   -0.0001193   -0.0001964   -0.0000411   -0.0001358    0.0001985   -0.0001841    0.0001244   -0.0002108   -0.0000278    0.0000293   -0.0001265   -0.0011817    0.0007158    0.0014954   -0.0003173   -0.0004088    0.0001810   -0.0002360   -0.0000319    0.0012892   -0.0001347   -0.0000051    0.0001131    0.0014187    0.0035003    0.0004695   -0.0000555   -0.0001589    0.0002458   -0.0002052    0.0004150   -0.0009950   -0.0001964   -0.0010562   -0.0001517    0.0000103    0.0002910   -0.0001219    0.0003085   -0.0001183   -0.0000519    0.0005687   -0.0000082    0.0006222   -0.0002031   -0.0003558    0.0001574   -0.0000776    0.0006649   -0.0011647    0.0004088    0.0002237    0.0012058   -0.0003934   -0.0001723   -0.0000077   -0.0003142   -0.0001789   -0.0000159   -0.0002818    0.0001244   -0.0002216   -0.0000622    0.0004217    0.0000679    0.0013735    0.0006525    0.0006124   -0.0000972    0.0000339    0.0001193   -0.0001589   -0.0010269    0.0001851   -0.0000118    0.0002551    0.0000596    0.0011827   -0.0006166   -0.0017468   -0.0000632    0.0000566    0.0000345    0.0001080   -0.0001244   -0.0000309   -0.0000247    0.0001080   -0.0000797 
   0.0046162    0.0001327    0.0014635   -0.0015036   -0.0121017   -0.0084965   -0.0004659   -0.0013056    0.0000895   -0.0004448    0.0012480    0.0002587   -0.0025768    0.0012182    0.0059156   -0.0009266    0.0038618    0.0064236   -0.0039209   -0.0008572   -0.0015581   -0.0025253    0.0019350    0.0005266    0.0012069   -0.0003656   -0.0016285   -0.0002052    0.0002360   -0.0000730   -0.0022981    0.0048512    0.0001286    0.0011714    0.0015360    0.0005878   -0.0003918    0.0004597   -0.0006567    0.0001008   -0.0016486    0.0005394    0.0002587   -0.0017993    0.0010269    0.0031470    0.0008161    0.0038279    0.0007729   -0.0014085   -0.0001995    0.0028025   -0.0128699   -0.0076907    0.0005410    0.0005286   -0.0007718   -0.0000632    0.0007826   -0.0002684    0.0005734    0.0045467   -0.0019690   -0.0000787    0.0017381   -0.0014450    0.0130129   -0.0036880   -0.0142177    0.0010320   -0.0002844    0.0000267    0.0000710   -0.0004350   -0.0007981    0.0011791   -0.0001676    0.0001234   -0.0000339    0.0017602    0.0005908   -0.0028724    0.0004350   -0.0021335    0.0014676    0.0001476    0.0017633    0.0004124    0.0019839    0.0012979   -0.0010511    0.0008932   -0.0012604    0.0010973    0.0022466   -0.0018692    0.0003821   -0.0031897    0.0009703   -0.0001404    0.0001687   -0.0003867    0.0041241   -0.0063614   -0.0019798    0.0042876   -0.0051638   -0.0123824   -0.0014300   -0.0013303    0.0045195    0.0003656    0.0002499   -0.0003877   -0.0004937    0.0005322   -0.0019031   -0.0034946   -0.0014105    0.0029712    0.0007934    0.0062005   -0.0015509    0.0002731   -0.0009919    0.0004330   -0.0035672    0.0135220    0.0053870   -0.0007287    0.0009122    0.0023510   -0.0000339    0.0003101    0.0007878   -0.0012871   -0.0015468   -0.0006073    0.0000792   -0.0001342    0.0004083    0.0009091   -0.0002180    0.0002263    0.0009780   -0.0001558   -0.0002515   -0.0006155    0.0000746    0.0002946    0.0036854    0.0043894   -0.0049273    0.0001080   -0.0007153    0.0005533    0.0042788   -0.0020193    0.0006392   -0.0009158    0.0007847    0.0004638    0.0006546    0.0009534    0.0009030    0.0017005   -0.0006222   -0.0009436   -0.0001121    0.0015421   -0.0000057    0.0003918   -0.0006726    0.0004854    0.0006628   -0.0005163    0.0010984   -0.0003183   -0.0025505   -0.0003929   -0.0022651   -0.0011894   -0.0052584    0.0024559    0.0001975   -0.0003085    0.0026426   -0.0004247   -0.0008973   -0.0011534    0.0006222    0.0020795   -0.0020286    0.0007384   -0.0009086    0.0006114   -0.0011411    0.0004412   -0.0044506   -0.0001815   -0.0080697    0.0023073    0.0008351   -0.0014167    0.0003990    0.0008330    0.0000021    0.0010619    0.0012418    0.0005975   -0.0008351   -0.0001162    0.0034622   -0.0005276   -0.0015344   -0.0003625   -0.0001558    0.0004458   -0.0006633    0.0011174    0.0014532    0.0019499   -0.0018538   -0.0001188   -0.0002335   -0.0046789   -0.0008927   -0.0016722   -0.0008202   -0.0000478    0.0012028   -0.0001224   -0.0015360   -0.0004448   -0.0001126    0.0003317   -0.0002355    0.0003137   -0.0009076   -0.0012578   -0.0010963   -0.0001872   -0.0000967   -0.0004031   -0.0000895   -0.0001466   -0.0008474    0.0009266   -0.0001733   -0.0010228   -0.0000833    0.0003733    0.0007749   -0.0006417    0.0000447   -0.0007862   -0.0000098   -0.0026971   -0.0000345   -0.0002098    0.0001753   -0.0012609    0.0001131   -0.0005214    0.0013246    0.0001445    0.0003281   -0.0000324    0.0006973    0.0004690   -0.0002551   -0.0010156   -0.0017561    0.0002067    0.0000432    0.0003101    0.0005081   -0.0018928    0.0006896    0.0008073   -0.0001568    0.0000730    0.0026667   -0.0000499    0.0002643    0.0026801    0.0002175    0.0026374   -0.0008562   -0.0000653   -0.0011894    0.0018656    0.0045241    0.0009261   -0.0004037   -0.0014588   -0.0013637   -0.0011231   -0.0003687    0.0003862    0.0002885    0.0005116    0.0004695   -0.0001203    0.0004921    0.0002607    0.0000453    0.0018358   -0.0005533    0.0014712   -0.0006623   -0.0000309    0.0001342   -0.0000519   -0.0000370   -0.0004155   -0.0008140   -0.0009256   -0.0037070   -0.0003456    0.0015308   -0.0009590    0.0028056   -0.0012979    0.0003605    0.0006412   -0.0003800    0.0007538    0.0001800    0.0012588    0.0002767    0.0005312    0.0005497    0.0014588   -0.0000483    0.0012408    0.0008510    0.0003394   -0.0006248   -0.0007816   -0.0014367   -0.0002103    0.0004916   -0.0003342    0.0000031   -0.0042392    0.0001753    0.0014774    0.0003044    0.0000062    0.0000982    0.0002710   -0.0002669    0.0016177   -0.0001332    0.0000627   -0.0010403    0.0005312    0.0008078   -0.0007045   -0.0017185   -0.0001512    0.0012496   -0.0018800    0.0001178    0.0019062   -0.0041786    0.0061136   -0.0055793   -0.0002838    0.0000051    0.0008305   -0.0005996    0.0009040   -0.0003749   -0.0003044    0.0006001   -0.0007225   -0.0001172   -0.0002844    0.0000519   -0.0003769    0.0006304   -0.0003579    0.0003270    0.0013282    0.0004067   -0.0009307    0.0002695    0.0005749   -0.0014085    0.0007050   -0.0008927   -0.0006099    0.0002792   -0.0017782    0.0007430   -0.0020682    0.0007600    0.0003096    0.0031733    0.0000483   -0.0003024   -0.0031146   -0.0006700   -0.0014398   -0.0003476    0.0006484    0.0009487    0.0028395   -0.0001208    0.0003939   -0.0001589    0.0004921   -0.0018975   -0.0007415   -0.0007482    0.0001805   -0.0002828    0.0025978   -0.0009277   -0.0002299    0.0001944   -0.0012490   -0.0003836   -0.0071204   -0.0006515   -0.0000067   -0.0003867   -0.0000854    0.0002036    0.0004520    0.0001810   -0.0004798    0.0004499    0.0002844    0.0004016   -0.0007760    0.0061748   -0.0010202    0.0010310    0.0004206   -0.0012583   -0.0010485    0.0003497    0.0000648    0.0000617   -0.0008839   -0.0000262   -0.0003594    0.0003301    0.0002993   -0.0005451   -0.0010691   -0.0012845    0.0009045   -0.0016383    0.0008366    0.0020348   -0.0011164    0.0005271    0.0001753   -0.0002232   -0.0000812    0.0001800    0.0006788   -0.0006726    0.0000288   -0.0006155   -0.0007317    0.0001306   -0.0001507    0.0004196    0.0003492    0.0002468    0.0004289   -0.0007143    0.0000766    0.0015123   -0.0023371    0.0000216    0.0005471    0.0003260    0.0025269   -0.0000391    0.0002941   -0.0012079    0.0003733   -0.0004613    0.0000077   -0.0006567   -0.0000422   -0.0001558   -0.0006474    0.0004268 
   0.0016337    0.0020199    0.0017046   -0.0012892   -0.0021263   -0.0008001    0.0001198    0.0005533    0.0003852    0.0020805   -0.0035743    0.0011045   -0.0021536   -0.0017257    0.0020661    0.0005764    0.0012640   -0.0003594    0.0010418   -0.0008459    0.0010192    0.0034694    0.0008197    0.0036361    0.0009081   -0.0001404   -0.0008315   -0.0006541    0.0002329    0.0000550   -0.0005122    0.0001440   -0.0003636    0.0006222   -0.0000257    0.0001265   -0.0006417   -0.0006248   -0.0001558   -0.0052528   -0.0037132   -0.0011498   -0.0007158   -0.0007569   -0.0002257    0.0017088    0.0005723    0.0005620   -0.0003286   -0.0004839   -0.0001810    0.0047895   -0.0026832    0.0022549    0.0004690   -0.0011493    0.0004782    0.0001095    0.0013426   -0.0016841   -0.0008860    0.0005065    0.0004361    0.0001049   -0.0005476   -0.0002422    0.0040197   -0.0084625   -0.0009523    0.0020121   -0.0004541   -0.0002196    0.0002396    0.0002057   -0.0000540   -0.0012110    0.0009415   -0.0009421   -0.0002103    0.0005456   -0.0000252   -0.0000525   -0.0005780   -0.0000761   -0.0006433   -0.0005512   -0.0002057    0.0009035   -0.0017273    0.0027207   -0.0044177    0.0039353    0.0002036   -0.0060046    0.0038345    0.0029125    0.0011796   -0.0017663    0.0002165    0.0005708    0.0006387   -0.0018558    0.0029012    0.0016949   -0.0006448   -0.0000782   -0.0009025    0.0008978    0.0000890    0.0116862   -0.0026333    0.0006695   -0.0005862   -0.0021433   -0.0002900   -0.0000874    0.0005070   -0.0004921    0.0006119    0.0010814   -0.0032895   -0.0029393   -0.0000170    0.0011225    0.0008953    0.0022415    0.0070304   -0.0015900    0.0005579   -0.0016805    0.0005266    0.0004700   -0.0008207   -0.0000293    0.0008382    0.0012264    0.0024220    0.0026745    0.0009852   -0.0004330   -0.0000792   -0.0002905    0.0009899    0.0010912   -0.0002833   -0.0014501   -0.0001532   -0.0006273    0.0004443    0.0022662    0.0018229    0.0026323    0.0025325   -0.0003173    0.0030565   -0.0031671   -0.0051967   -0.0019602   -0.0000432   -0.0006788   -0.0001322   -0.0014918    0.0006993   -0.0001111   -0.0009307   -0.0001800    0.0000458   -0.0009158   -0.0005785   -0.0009421   -0.0011750    0.0039775    0.0009415    0.0045154   -0.0015128   -0.0005183    0.0012449   -0.0009297   -0.0007112   -0.0002283   -0.0000237   -0.0014146    0.0021515   -0.0045390   -0.0025917   -0.0009112    0.0003301   -0.0010372   -0.0022276   -0.0009631   -0.0001496   -0.0025906   -0.0000689    0.0013745    0.0026241    0.0018831    0.0002612   -0.0003564    0.0037060   -0.0012619    0.0006556   -0.0015838    0.0034062   -0.0004453   -0.0015411    0.0005893   -0.0008937    0.0030159    0.0070068    0.0055618   -0.0004921    0.0032247   -0.0012897   -0.0018167    0.0002144   -0.0014290    0.0024837    0.0021278    0.0016728    0.0013889   -0.0004484   -0.0008300   -0.0010865    0.0037754   -0.0012490   -0.0026097   -0.0025228    0.0025644   -0.0002823    0.0008027   -0.0000108   -0.0037790    0.0012331   -0.0032303   -0.0010341    0.0019875    0.0018152    0.0004186   -0.0008181   -0.0005595    0.0002689   -0.0009611    0.0004181   -0.0009446   -0.0015000    0.0010907    0.0021726   -0.0016697    0.0017108    0.0036911   -0.0014738    0.0020610    0.0077179    0.0000201   -0.0040618    0.0007729    0.0011899    0.0042068   -0.0015000   -0.0003790    0.0026899    0.0003918    0.0002617   -0.0004479   -0.0005106   -0.0016944   -0.0018872   -0.0000581   -0.0004530    0.0007184   -0.0043236    0.0002653   -0.0019890   -0.0008464   -0.0024893   -0.0029825    0.0019525   -0.0013910   -0.0002900   -0.0020651   -0.0031151    0.0019463   -0.0068926   -0.0032108    0.0022867    0.0004849    0.0018548   -0.0046943    0.0028539   -0.0010099   -0.0017705   -0.0218271   -0.0105215   -0.0058179    0.0045755   -0.0003569    0.0025685   -0.0009282   -0.0003106   -0.0012964    0.0017118   -0.0007888   -0.0020265    0.0005656   -0.0004746    0.0007940   -0.0028344    0.0011246    0.0024693    0.0016291    0.0064560   -0.0006109   -0.0001306    0.0005451    0.0010583    0.0002386    0.0028292    0.0075195   -0.0145602    0.0036957   -0.0005322    0.0050656   -0.0008737   -0.0069008    0.0138469    0.0004798    0.0014532   -0.0010094    0.0001450   -0.0005250    0.0019222    0.0111843    0.0022528   -0.0008001   -0.0029691    0.0024487   -0.0000828   -0.0008073    0.0009729    0.0034674   -0.0008315    0.0004895    0.0009133    0.0000087    0.0000077   -0.0017797   -0.0012074   -0.0060303   -0.0004571   -0.0007502    0.0005163    0.0060632   -0.0007549    0.0000689   -0.0013071   -0.0011981    0.0000098    0.0012526    0.0004247    0.0013246   -0.0037836   -0.0001568   -0.0076249   -0.0021926   -0.0002617   -0.0003327    0.0023212   -0.0024477    0.0032015   -0.0029470   -0.0006752    0.0055083   -0.0019592   -0.0003846    0.0009837   -0.0004273    0.0001774   -0.0036571   -0.0007297   -0.0000185    0.0004978   -0.0038525   -0.0007569    0.0007616    0.0006381    0.0004993    0.0002340    0.0012213   -0.0029511   -0.0000015   -0.0008618    0.0022497   -0.0001142    0.0006675   -0.0003013   -0.0008402    0.0036803    0.0007045    0.0028699    0.0229939    0.0003903    0.0063517    0.0094375   -0.0109694   -0.0138120   -0.0044172    0.0061624    0.0008058    0.0003780    0.0016990   -0.0002792    0.0030318    0.0054734    0.0044336    0.0009791    0.0016476   -0.0009919    0.0008803   -0.0086811   -0.0045961   -0.0018512    0.0011308    0.0003728    0.0036597    0.0001867   -0.0081458    0.0005142    0.0024456    0.0005523    0.0028467    0.0032998   -0.0014429   -0.0012208    0.0001841   -0.0018394    0.0010326    0.0057978    0.0011884    0.0099347    0.0008485   -0.0025984    0.0080949   -0.0083952   -0.0070160    0.0001651    0.0005353    0.0002103   -0.0046367    0.0000051    0.0002144    0.0019443   -0.0049052    0.0044696    0.0012742   -0.0082085    0.0034710   -0.0008310    0.0015010   -0.0016409   -0.0041981    0.0021376    0.0057459   -0.0023263    0.0001784   -0.0003121   -0.0015586   -0.0009045    0.0033532   -0.0009081    0.0027321   -0.0019556    0.0019175    0.0009482   -0.0019700   -0.0018846    0.0048969    0.0097167   -0.0015206    0.0019417   -0.0026878    0.0000103    0.0011056    0.0008166    0.0078640   -0.0028730   -0.0034720   -0.0005137   -0.0003785   -0.0000648   -0.0000890    0.0002160    0.0002268   -0.0003049    0.0001969   -0.0001779 
  -0.0004304    0.0013272   -0.0012943    0.0002509    0.0013128    0.0014151   -0.0001913   -0.0002921    0.0001111    0.0004181   -0.0005091    0.0007893    0.0016938   -0.0016244    0.0003198    0.0005137    0.0004607   -0.0003445    0.0002067    0.0016054   -0.0005903   -0.0007359    0.0007796    0.0007189   -0.0002314    0.0000951   -0.0001558   -0.0000874   -0.0003188   -0.0002381   -0.0010192    0.0013133    0.0011138   -0.0004438    0.0003178   -0.0000576   -0.0007394    0.0000920    0.0004381    0.0005009    0.0009374    0.0006459    0.0001039    0.0001250   -0.0001383    0.0010896    0.0021752   -0.0014218   -0.0003255    0.0008752    0.0004998   -0.0005656   -0.0012917   -0.0000848   -0.0010470   -0.0015231    0.0008140    0.0002689    0.0000108   -0.0003013   -0.0005523   -0.0007806   -0.0001337   -0.0000159   -0.0002864   -0.0001111    0.0011153   -0.0004345   -0.0031419    0.0004067   -0.0003872    0.0000843   -0.0010845   -0.0002952    0.0000977    0.0009395    0.0008248    0.0002170    0.0005096   -0.0008418   -0.0001666    0.0000062    0.0006561   -0.0006813   -0.0001856   -0.0008428    0.0001728   -0.0005610    0.0007672    0.0010855   -0.0015432    0.0021104    0.0013282    0.0003769   -0.0000854   -0.0000566   -0.0001214   -0.0006556   -0.0013251    0.0000561    0.0001712    0.0000787   -0.0012269    0.0018579   -0.0006186   -0.0001861   -0.0000956   -0.0001445    0.0034170   -0.0003373   -0.0026004   -0.0000689   -0.0002674    0.0000545    0.0003198   -0.0010074    0.0013833    0.0000242   -0.0008053    0.0006531   -0.0027547   -0.0022579   -0.0003394    0.0000113   -0.0002201   -0.0002689   -0.0038469   -0.0001383   -0.0000087   -0.0000118    0.0005158   -0.0003605    0.0001013   -0.0000278   -0.0002273   -0.0002828   -0.0000884    0.0001085    0.0001373   -0.0001604   -0.0005533   -0.0009760   -0.0004839   -0.0000170    0.0002185   -0.0002725   -0.0004479    0.0003420   -0.0007549    0.0003970    0.0015745    0.0013370    0.0002237   -0.0016409   -0.0005070    0.0006849   -0.0015406    0.0002155    0.0008562   -0.0004438    0.0001013   -0.0001383    0.0000103   -0.0001476   -0.0004088    0.0005739    0.0007950   -0.0003954   -0.0003209    0.0000504   -0.0003666   -0.0010110    0.0003769   -0.0002782    0.0002653    0.0003528    0.0009251    0.0002571   -0.0006063   -0.0000761   -0.0009549    0.0023284    0.0027542    0.0000303   -0.0001568   -0.0010017   -0.0003121   -0.0014126    0.0004911    0.0002921    0.0006243   -0.0000262    0.0007893   -0.0004530   -0.0003764   -0.0002263    0.0006299   -0.0003569   -0.0012022   -0.0009549   -0.0013930    0.0011637    0.0000627   -0.0001676   -0.0007117    0.0004541    0.0007580    0.0030257   -0.0001620   -0.0000057   -0.0000442    0.0013159   -0.0005888    0.0005847    0.0000499   -0.0002710   -0.0000509    0.0002185   -0.0000360   -0.0003204   -0.0002350   -0.0002463    0.0001861    0.0002535    0.0006675    0.0002946    0.0006988   -0.0004983   -0.0000632   -0.0003368   -0.0000185   -0.0002268   -0.0005785    0.0004253   -0.0004057    0.0006124    0.0003759   -0.0001913    0.0008058    0.0000946   -0.0007045    0.0001954   -0.0005651   -0.0001219   -0.0000766    0.0001394    0.0001049   -0.0002576   -0.0003754    0.0001933    0.0001116    0.0000751    0.0009210   -0.0011277   -0.0005975    0.0003785   -0.0005266    0.0002371    0.0003090    0.0002386   -0.0001887    0.0005271    0.0001198    0.0001784    0.0000432   -0.0001964   -0.0000684    0.0001538    0.0001579   -0.0004294    0.0000674    0.0003430   -0.0002021   -0.0002412   -0.0000051    0.0001352    0.0000298    0.0009061   -0.0000915    0.0001964    0.0003322   -0.0002797   -0.0000458   -0.0006166   -0.0003749    0.0006680    0.0001625    0.0007641   -0.0001327    0.0003198   -0.0003831   -0.0014974   -0.0005363    0.0008294    0.0004319    0.0002340   -0.0005579    0.0000586    0.0003322    0.0000417    0.0000895   -0.0001527   -0.0002443   -0.0009451   -0.0000869   -0.0003162    0.0001656   -0.0023798    0.0003826    0.0004947   -0.0003173    0.0003363    0.0003065   -0.0001234    0.0002962   -0.0003733    0.0001460    0.0005497    0.0013514   -0.0014825    0.0007235   -0.0000668    0.0004422    0.0000185   -0.0000221   -0.0003615   -0.0001167   -0.0001034    0.0002216   -0.0002638   -0.0002479    0.0009924   -0.0004037   -0.0000442    0.0000453   -0.0002936   -0.0000226   -0.0001507    0.0001933   -0.0003564   -0.0001440    0.0007317    0.0000504    0.0002540    0.0001435    0.0003240    0.0000828    0.0003615   -0.0000766    0.0002905   -0.0000890    0.0000566    0.0002247   -0.0001142    0.0001316    0.0003332   -0.0004494   -0.0002237   -0.0000514    0.0000869    0.0003008   -0.0004402   -0.0000437    0.0001789   -0.0010290   -0.0003492    0.0046696    0.0011539   -0.0001800    0.0004088    0.0002761    0.0002669   -0.0001481    0.0002417    0.0000751   -0.0002170   -0.0001244    0.0003409    0.0000483    0.0000782   -0.0000648    0.0002093    0.0001753   -0.0002185   -0.0000247    0.0002489   -0.0000895    0.0000879    0.0002149    0.0000139   -0.0000432    0.0000103    0.0000062    0.0001481    0.0001100   -0.0000951   -0.0002103   -0.0000072    0.0005826    0.0002607   -0.0002170   -0.0002838    0.0001692    0.0002273   -0.0001208    0.0000751   -0.0002777   -0.0001815    0.0000931   -0.0000463    0.0001918   -0.0001172   -0.0000648    0.0001059   -0.0000057   -0.0000725   -0.0001378   -0.0000812   -0.0007626    0.0006135    0.0001090   -0.0001856   -0.0002926   -0.0000319    0.0008300    0.0000195    0.0002587   -0.0001466   -0.0002242    0.0000278   -0.0002962    0.0001198   -0.0004618   -0.0000468    0.0000432   -0.0001527   -0.0001275   -0.0000031    0.0000710    0.0003522    0.0000504   -0.0001651   -0.0002083    0.0000026    0.0000093   -0.0001358    0.0000093   -0.0000519   -0.0000730   -0.0002381   -0.0000900   -0.0000309    0.0003029   -0.0004417   -0.0004870   -0.0006664   -0.0006196   -0.0002921   -0.0004859    0.0001286    0.0000483   -0.0000561    0.0000273   -0.0000021    0.0000401   -0.0000165   -0.0000432    0.0001795    0.0000401   -0.0000684   -0.0000982   -0.0002201   -0.0001152   -0.0000920    0.0001255   -0.0001666   -0.0000869   -0.0003327    0.0001522   -0.0001075   -0.0000453    0.0000561    0.0001795   -0.0001625    0.0012295    0.0014511    0.0016347    0.0027578   -0.0002874    0.0003332    0.0001563    0.0006469    0.0002576    0.0029809    0.0010850 